<?xml version="1.0" encoding="ISO-8859-1"?>
<modeling>
 <generator>
  <i name="program" type="string">vasp </i>
  <i name="version" type="string">5.4.1  </i>
  <i name="subversion" type="string">24Jun15 (build Nov 23 2015 09:58:10) complex                          parallel </i>
  <i name="platform" type="string">LinuxIFC </i>
  <i name="date" type="string">2019 12 30 </i>
  <i name="time" type="string">09:52:12 </i>
 </generator>
 <incar>
  <i type="int" name="ISTART">     0</i>
  <i type="string" name="PREC">accurate</i>
  <i type="string" name="ALGO"> Fast</i>
  <i type="logical" name="ADDGRID"> T  </i>
  <i type="int" name="INIWAV">     1</i>
  <i type="int" name="NELM">    60</i>
  <i type="int" name="NELMIN">     6</i>
  <i type="int" name="IBRION">     2</i>
  <i name="EDIFF">      0.00001000</i>
  <i name="EDIFFG">     -0.01500000</i>
  <i type="int" name="NSW">   150</i>
  <i type="int" name="ISIF">     3</i>
  <i type="int" name="NBLOCK">     1</i>
  <i name="ENCUT">    520.00000000</i>
  <i name="POTIM">      0.20000000</i>
  <i type="string" name="LREAL"> Auto</i>
  <i type="int" name="ISMEAR">    -5</i>
  <i type="logical" name="LWAVE"> F  </i>
  <i type="logical" name="LCHARG"> F  </i>
  <v type="int" name="KPOINT_BSE">    -1     0     0     0</v>
  <i type="int" name="NELM">    60</i>
 </incar>
 <kpoints>
  <generation param="Monkhorst-Pack">
   <v type="int" name="divisions">       5        5        5 </v>
   <v name="usershift">      0.00000000       0.00000000       0.00000000 </v>
   <v name="genvec1">      0.20000000       0.00000000       0.00000000 </v>
   <v name="genvec2">      0.00000000       0.20000000       0.00000000 </v>
   <v name="genvec3">      0.00000000       0.00000000       0.20000000 </v>
   <v name="shift">      0.00000000       0.00000000       0.00000000 </v>
  </generation>
  <varray name="kpointlist" >
   <v>       0.00000000       0.00000000       0.00000000 </v>
   <v>       0.20000000       0.00000000       0.00000000 </v>
   <v>       0.40000000       0.00000000       0.00000000 </v>
   <v>       0.20000000       0.20000000       0.00000000 </v>
   <v>       0.40000000       0.20000000       0.00000000 </v>
   <v>       0.40000000       0.40000000       0.00000000 </v>
   <v>       0.20000000       0.20000000       0.20000000 </v>
   <v>       0.40000000       0.20000000       0.20000000 </v>
   <v>       0.40000000       0.40000000       0.20000000 </v>
   <v>       0.40000000       0.40000000       0.40000000 </v>
  </varray>
  <varray name="weights" >
   <v>       0.00800000 </v>
   <v>       0.04800000 </v>
   <v>       0.04800000 </v>
   <v>       0.09600000 </v>
   <v>       0.19200000 </v>
   <v>       0.09600000 </v>
   <v>       0.06400000 </v>
   <v>       0.19200000 </v>
   <v>       0.19200000 </v>
   <v>       0.06400000 </v>
  </varray>
  <varray name="tetrahedronlist"  type="int" >
   <v type="int" >       12        1        2        2        4 </v>
   <v type="int" >       12        2        2        4        4 </v>
   <v type="int" >       12        2        4        4        7 </v>
   <v type="int" >       12        2        3        4        5 </v>
   <v type="int" >       12        2        4        4        5 </v>
   <v type="int" >       12        4        4        5        7 </v>
   <v type="int" >       12        3        4        5        5 </v>
   <v type="int" >       24        4        5        5        8 </v>
   <v type="int" >       24        4        5        7        8 </v>
   <v type="int" >        6        3        3        5        5 </v>
   <v type="int" >       12        3        5        5        5 </v>
   <v type="int" >       12        5        5        5        8 </v>
   <v type="int" >        6        5        5        8        8 </v>
   <v type="int" >       12        4        5        6        7 </v>
   <v type="int" >       12        5        6        7        8 </v>
   <v type="int" >       12        6        7        8        9 </v>
   <v type="int" >       24        5        5        6        8 </v>
   <v type="int" >       12        5        6        6        8 </v>
   <v type="int" >       12        6        6        8        9 </v>
   <v type="int" >       12        5        6        8        8 </v>
   <v type="int" >       12        6        8        8        9 </v>
   <v type="int" >       12        6        8        9        9 </v>
   <v type="int" >       12        5        6        8        9 </v>
   <v type="int" >       12        5        7        8        8 </v>
   <v type="int" >       24        5        8        8        9 </v>
   <v type="int" >       12        2        3        4        7 </v>
   <v type="int" >       12        3        4        5        7 </v>
   <v type="int" >       12        3        5        7        8 </v>
   <v type="int" >       12        6        6        6        9 </v>
   <v type="int" >       12        6        6        9        9 </v>
   <v type="int" >       12        6        9        9        9 </v>
   <v type="int" >       12        5        5        6        9 </v>
   <v type="int" >       12        5        6        6        9 </v>
   <v type="int" >       12        5        6        9        9 </v>
   <v type="int" >       12        5        5        8        9 </v>
   <v type="int" >       12        5        8        9        9 </v>
   <v type="int" >       12        3        3        5        8 </v>
   <v type="int" >       12        3        5        5        8 </v>
   <v type="int" >       12        3        5        8        8 </v>
   <v type="int" >       12        4        5        6        9 </v>
   <v type="int" >       12        4        5        8        9 </v>
   <v type="int" >       12        4        7        8        9 </v>
   <v type="int" >       12        2        3        5        8 </v>
   <v type="int" >       12        2        4        5        8 </v>
   <v type="int" >       12        2        4        7        8 </v>
   <v type="int" >       12        1        2        4        7 </v>
   <v type="int" >       12        7        8        8        9 </v>
   <v type="int" >       18        8        8        9        9 </v>
   <v type="int" >       24        8        9        9       10 </v>
   <v type="int" >       12        8        9        9        9 </v>
   <v type="int" >       24        9        9        9       10 </v>
   <v type="int" >       18        9        9       10       10 </v>
   <v type="int" >       12        9       10       10       10 </v>
   <v type="int" >       12        8        8        9       10 </v>
   <v type="int" >       12        8        9       10       10 </v>
   <v type="int" >       12        7        8        9       10 </v>
   <v type="int" >        6       10       10       10       10 </v>
  </varray>
  <i name="volumeweight">      0.00133333 </i>
 </kpoints>
 <parameters>
  <separator name="general" >
   <i type="string" name="SYSTEM">unknown system</i>
   <i type="logical" name="LCOMPAT"> F  </i>
  </separator>
  <separator name="electronic" >
   <i type="string" name="PREC">accura</i>
   <i name="ENMAX">    520.00000000</i>
   <i name="ENAUG">    322.06900000</i>
   <i name="EDIFF">      0.00001000</i>
   <i type="int" name="IALGO">    68</i>
   <i type="int" name="IWAVPR">    11</i>
   <i type="int" name="NBANDS">    24</i>
   <i name="NELECT">     32.00000000</i>
   <i type="int" name="TURBO">     0</i>
   <i type="int" name="IRESTART">     0</i>
   <i type="int" name="NREBOOT">     0</i>
   <i type="int" name="NMIN">     0</i>
   <i name="EREF">      0.00000000</i>
   <separator name="electronic smearing" >
    <i type="int" name="ISMEAR">    -5</i>
    <i name="SIGMA">      0.20000000</i>
    <i name="KSPACING">      0.50000000</i>
    <i type="logical" name="KGAMMA"> T  </i>
   </separator>
   <separator name="electronic projectors" >
    <i type="logical" name="LREAL"> T  </i>
    <v name="ROPT">     -0.00025000</v>
    <i type="int" name="LMAXPAW">  -100</i>
    <i type="int" name="LMAXMIX">     2</i>
    <i type="logical" name="NLSPLINE"> F  </i>
   </separator>
   <separator name="electronic startup" >
    <i type="int" name="ISTART">     0</i>
    <i type="int" name="ICHARG">     2</i>
    <i type="int" name="INIWAV">     1</i>
   </separator>
   <separator name="electronic spin" >
    <i type="int" name="ISPIN">     1</i>
    <i type="logical" name="LNONCOLLINEAR"> F  </i>
    <v name="MAGMOM">      1.00000000      1.00000000      1.00000000      1.00000000      1.00000000      1.00000000      1.00000000      1.00000000</v>
    <i name="NUPDOWN">     -1.00000000</i>
    <i type="logical" name="LSORBIT"> F  </i>
    <v name="SAXIS">      0.00000000      0.00000000      1.00000000</v>
    <i type="logical" name="LSPIRAL"> F  </i>
    <v name="QSPIRAL">      0.00000000      0.00000000      0.00000000</v>
    <i type="logical" name="LZEROZ"> F  </i>
   </separator>
   <separator name="electronic exchange-correlation" >
    <i type="logical" name="LASPH"> F  </i>
    <i type="logical" name="LMETAGGA"> F  </i>
   </separator>
   <separator name="electronic convergence" >
    <i type="int" name="NELM">    60</i>
    <i type="int" name="NELMDL">    -5</i>
    <i type="int" name="NELMIN">     6</i>
    <i name="ENINI">    520.00000000</i>
    <separator name="electronic convergence detail" >
     <i type="logical" name="LDIAG"> T  </i>
     <i type="logical" name="LSUBROT"> F  </i>
     <i name="WEIMIN">      0.00100000</i>
     <i name="EBREAK">      0.00000010</i>
     <i name="DEPER">      0.30000000</i>
     <i type="int" name="NRMM">     4</i>
     <i name="TIME">      0.40000000</i>
    </separator>
   </separator>
   <separator name="electronic mixer" >
    <i name="AMIX">      0.40000000</i>
    <i name="BMIX">      1.00000000</i>
    <i name="AMIN">      0.10000000</i>
    <i name="AMIX_MAG">      1.60000000</i>
    <i name="BMIX_MAG">      1.00000000</i>
    <separator name="electronic mixer details" >
     <i type="int" name="IMIX">     4</i>
     <i type="logical" name="MIXFIRST"> F  </i>
     <i type="int" name="MAXMIX">   -45</i>
     <i name="WC">    100.00000000</i>
     <i type="int" name="INIMIX">     1</i>
     <i type="int" name="MIXPRE">     1</i>
     <i type="int" name="MREMOVE">     5</i>
    </separator>
   </separator>
   <separator name="electronic dipolcorrection" >
    <i type="logical" name="LDIPOL"> F  </i>
    <i type="logical" name="LMONO"> F  </i>
    <i type="int" name="IDIPOL">     0</i>
    <i name="EPSILON">      1.00000000</i>
    <v name="DIPOL">   -100.00000000   -100.00000000   -100.00000000</v>
    <i name="EFIELD">      0.00000000</i>
   </separator>
  </separator>
  <separator name="grids" >
   <i type="int" name="NGX">    42</i>
   <i type="int" name="NGY">    42</i>
   <i type="int" name="NGZ">    42</i>
   <i type="int" name="NGXF">    84</i>
   <i type="int" name="NGYF">    84</i>
   <i type="int" name="NGZF">    84</i>
   <i type="logical" name="ADDGRID"> T  </i>
  </separator>
  <separator name="ionic" >
   <i type="int" name="NSW">   150</i>
   <i type="int" name="IBRION">     2</i>
   <i type="int" name="ISIF">     3</i>
   <i name="PSTRESS">      0.00000000</i>
   <i name="EDIFFG">     -0.01500000</i>
   <i type="int" name="NFREE">     1</i>
   <i name="POTIM">      0.20000000</i>
   <i name="SMASS">     -3.00000000</i>
   <i name="SCALEE">      1.00000000</i>
  </separator>
  <separator name="ionic md" >
   <i name="TEBEG">      0.00010000</i>
   <i name="TEEND">      0.00010000</i>
   <i type="int" name="NBLOCK">     1</i>
   <i type="int" name="KBLOCK">   150</i>
   <i type="int" name="NPACO">   256</i>
   <i name="APACO">     16.00000000</i>
  </separator>
  <separator name="symmetry" >
   <i type="int" name="ISYM">     2</i>
   <i name="SYMPREC">      0.00001000</i>
  </separator>
  <separator name="dos" >
   <i type="logical" name="LORBIT"> F  </i>
   <v name="RWIGS">     -1.00000000</v>
   <i type="int" name="NEDOS">   301</i>
   <i name="EMIN">     10.00000000</i>
   <i name="EMAX">    -10.00000000</i>
   <i name="EFERMI">      0.00000000</i>
  </separator>
  <separator name="writing" >
   <i type="int" name="NWRITE">     2</i>
   <i type="logical" name="LWAVE"> F  </i>
   <i type="logical" name="LCHARG"> F  </i>
   <i type="logical" name="LPARD"> F  </i>
   <i type="logical" name="LVTOT"> F  </i>
   <i type="logical" name="LVHAR"> F  </i>
   <i type="logical" name="LELF"> F  </i>
   <i type="logical" name="LOPTICS"> F  </i>
   <v name="STM">      0.00000000      0.00000000      0.00000000      0.00000000      0.00000000      0.00000000      0.00000000</v>
  </separator>
  <separator name="performance" >
   <i type="int" name="NPAR">     4</i>
   <i type="int" name="NSIM">     4</i>
   <i type="int" name="NBLK">    -1</i>
   <i type="logical" name="LPLANE"> T  </i>
   <i type="logical" name="LSCALAPACK"> T  </i>
   <i type="logical" name="LSCAAWARE"> F  </i>
   <i type="logical" name="LSCALU"> F  </i>
   <i type="logical" name="LASYNC"> F  </i>
   <i type="logical" name="LORBITALREAL"> F  </i>
  </separator>
  <separator name="miscellaneous" >
   <i type="int" name="IDIOT">     3</i>
   <i type="logical" name="LMUSIC"> F  </i>
   <v name="POMASS">     28.08500000</v>
   <v name="DARWINR">      0.00000000</v>
   <v name="DARWINV">      1.00000000</v>
   <i type="logical" name="LCORR"> T  </i>
  </separator>
  <i type="logical" name="GGA_COMPAT"> T  </i>
  <i type="logical" name="LBERRY"> F  </i>
  <i type="int" name="ICORELEVEL">     0</i>
  <i type="logical" name="LDAU"> F  </i>
  <i type="int" name="I_CONSTRAINED_M">     0</i>
  <separator name="electronic exchange-correlation" >
   <i type="string" name="GGA">--</i>
   <i type="int" name="VOSKOWN">     0</i>
   <i type="logical" name="LHFCALC"> F  </i>
   <i type="string" name="PRECFOCK"></i>
   <i type="logical" name="LSYMGRAD"> F  </i>
   <i type="logical" name="LHFONE"> F  </i>
   <i type="logical" name="LRHFCALC"> F  </i>
   <i type="logical" name="LTHOMAS"> F  </i>
   <i type="logical" name="LMODELHF"> F  </i>
   <i name="ENCUT4O">     -1.00000000</i>
   <i type="int" name="EXXOEP">     0</i>
   <i type="int" name="FOURORBIT">     0</i>
   <i name="AEXX">      0.00000000</i>
   <i name="HFALPHA">      0.00000000</i>
   <i name="MCALPHA">      0.00000000</i>
   <i name="ALDAX">      1.00000000</i>
   <i name="AGGAX">      1.00000000</i>
   <i name="ALDAC">      1.00000000</i>
   <i name="AGGAC">      1.00000000</i>
   <i type="int" name="NKREDX">     1</i>
   <i type="int" name="NKREDY">     1</i>
   <i type="int" name="NKREDZ">     1</i>
   <i type="logical" name="SHIFTRED"> F  </i>
   <i type="logical" name="ODDONLY"> F  </i>
   <i type="logical" name="EVENONLY"> F  </i>
   <i type="int" name="LMAXFOCK">     0</i>
   <i type="int" name="NMAXFOCKAE">     0</i>
   <i type="logical" name="LFOCKAEDFT"> F  </i>
   <i name="HFSCREEN">      0.00000000</i>
   <i name="HFSCREENC">      0.00000000</i>
   <i type="int" name="NBANDSGWLOW">     0</i>
  </separator>
  <separator name="vdW DFT" >
   <i type="logical" name="LUSE_VDW"> F  </i>
   <i name="Zab_VDW">     -0.84910000</i>
   <i name="PARAM1">      0.12340000</i>
   <i name="PARAM2">      1.00000000</i>
   <i name="PARAM3">      0.00000000</i>
  </separator>
  <separator name="model GW" >
   <i type="int" name="MODEL_GW">     0</i>
   <i name="MODEL_EPS0">     12.27198633</i>
   <i name="MODEL_ALPHA">      1.00000000</i>
  </separator>
  <separator name="linear response parameters" >
   <i type="logical" name="LEPSILON"> F  </i>
   <i type="logical" name="LRPA"> F  </i>
   <i type="logical" name="LNABLA"> F  </i>
   <i type="logical" name="LVEL"> F  </i>
   <i type="int" name="KINTER">     0</i>
   <i name="CSHIFT">      0.10000000</i>
   <i name="OMEGAMAX">     -1.00000000</i>
   <i name="DEG_THRESHOLD">      0.00200000</i>
  </separator>
  <separator name="orbital magnetization" >
   <i type="logical" name="NUCIND"> F  </i>
   <v name="MAGPOS">      0.00000000      0.00000000      0.00000000</v>
   <i type="logical" name="LNICSALL"> T  </i>
   <i type="logical" name="ORBITALMAG"> F  </i>
   <i type="logical" name="LMAGBLOCH"> F  </i>
   <i type="logical" name="LCHIMAG"> F  </i>
   <i type="logical" name="LGAUGE"> T  </i>
   <i type="int" name="MAGATOM">     0</i>
   <v name="MAGDIPOL">      0.00000000      0.00000000      0.00000000</v>
   <v name="AVECCONST">      0.00000000      0.00000000      0.00000000</v>
  </separator>
  <separator name="response functions" >
   <i type="logical" name="LADDER"> F  </i>
   <i type="logical" name="LFXC"> F  </i>
   <i type="logical" name="LHARTREE"> T  </i>
   <i type="int" name="IBSE">     0</i>
   <v type="int" name="KPOINT">    -1     0     0     0</v>
   <i type="logical" name="LTCTE"> F  </i>
   <i type="logical" name="LTETE"> F  </i>
   <i type="logical" name="LTRIPLET"> F  </i>
   <i type="logical" name="LFXCEPS"> F  </i>
   <i type="logical" name="LFXHEG"> F  </i>
   <i type="int" name="NATURALO">     0</i>
   <i type="logical" name="L2ORDER"> F  </i>
   <i type="logical" name="LUSEW"> F  </i>
   <i name="ENCUTGW">     -2.00000000</i>
   <i name="ENCUTGWSOFT">     -2.00000000</i>
   <i name="ENCUTLF">     -1.00000000</i>
   <i type="int" name="LMAXMP2">    -1</i>
   <i name="SCISSOR">      0.00000000</i>
   <i type="int" name="NOMEGA">     0</i>
   <i type="int" name="NOMEGAR">     0</i>
   <i type="int" name="NBANDSGW">    -1</i>
   <i type="int" name="NBANDSO">    -1</i>
   <i type="int" name="NBANDSV">    -1</i>
   <i type="int" name="NELM">    60</i>
   <i type="int" name="NELMHF">     1</i>
   <i type="int" name="DIM">     3</i>
   <i type="int" name="ANTIRES">     0</i>
   <i name="OMEGAMAX">    -30.00000000</i>
   <i name="OMEGAMIN">    -30.00000000</i>
   <i name="OMEGATL">   -200.00000000</i>
   <i type="int" name="OMEGAGRID">     0</i>
   <i name="CSHIFT">     -0.10000000</i>
   <i type="logical" name="SELFENERGY"> F  </i>
   <i type="logical" name="LSPECTRAL"> F  </i>
   <i type="logical" name="LSPECTRALGW"> F  </i>
   <i type="logical" name="LSINGLES"> F  </i>
   <i type="logical" name="LFERMIGW"> F  </i>
   <i type="logical" name="ODDONLYGW"> F  </i>
   <i type="logical" name="EVENONLYGW"> F  </i>
   <i type="int" name="NKREDLFX">     1</i>
   <i type="int" name="NKREDLFY">     1</i>
   <i type="int" name="NKREDLFZ">     1</i>
   <i type="int" name="MAXMEM">  1800</i>
   <i type="int" name="TELESCOPE">     0</i>
   <i type="int" name="TAUPAR">     1</i>
   <i type="int" name="OMEGAPAR">    -1</i>
   <i name="LAMBDA">      1.00000000</i>
  </separator>
  <separator name="External order field" >
   <i name="OFIELD_KAPPA">      0.00000000</i>
   <v name="OFIELD_K">      0.00000000      0.00000000      0.00000000</v>
   <i name="OFIELD_Q6_NEAR">      0.00000000</i>
   <i name="OFIELD_Q6_FAR">      0.00000000</i>
   <i name="OFIELD_A">      0.00000000</i>
  </separator>
 </parameters>
 <atominfo>
  <atoms>       8 </atoms>
  <types>       1 </types>
  <array name="atoms" >
   <dimension dim="1">ion</dimension>
   <field type="string">element</field>
   <field type="int">atomtype</field>
   <set>
    <rc><c>Si</c><c>   1</c></rc>
    <rc><c>Si</c><c>   1</c></rc>
    <rc><c>Si</c><c>   1</c></rc>
    <rc><c>Si</c><c>   1</c></rc>
    <rc><c>Si</c><c>   1</c></rc>
    <rc><c>Si</c><c>   1</c></rc>
    <rc><c>Si</c><c>   1</c></rc>
    <rc><c>Si</c><c>   1</c></rc>
   </set>
  </array>
  <array name="atomtypes" >
   <dimension dim="1">type</dimension>
   <field type="int">atomspertype</field>
   <field type="string">element</field>
   <field>mass</field>
   <field>valence</field>
   <field type="string">pseudopotential</field>
   <set>
    <rc><c>   8</c><c>Si</c><c>     28.08500000</c><c>      4.00000000</c><c>  PAW_PBE Si 05Jan2001                  </c></rc>
   </set>
  </array>
 </atominfo>
 <structure name="initialpos" >
  <crystal>
   <varray name="basis" >
    <v>       5.46954500       0.00000000       0.00000000 </v>
    <v>       0.00000000       5.46954500       0.00000000 </v>
    <v>       0.00000000       0.00000000       5.46954500 </v>
   </varray>
   <i name="volume">    163.62648437 </i>
   <varray name="rec_basis" >
    <v>       0.18283056       0.00000000       0.00000000 </v>
    <v>       0.00000000       0.18283056       0.00000000 </v>
    <v>       0.00000000       0.00000000       0.18283056 </v>
   </varray>
  </crystal>
  <varray name="positions" >
   <v>       0.25000000       0.25000000       0.25000000 </v>
   <v>       0.00000000       0.50000000       0.50000000 </v>
   <v>       0.25000000       0.75000000       0.75000000 </v>
   <v>       0.00000000       0.00000000       0.00000000 </v>
   <v>       0.75000000       0.25000000       0.75000000 </v>
   <v>       0.50000000       0.50000000       0.00000000 </v>
   <v>       0.75000000       0.75000000       0.25000000 </v>
   <v>       0.50000000       0.00000000       0.50000000 </v>
  </varray>
 </structure>
 <calculation>
  <scstep>
   <time name="dav">    0.23    0.53</time>
   <time name="total">    0.31    0.63</time>
   <energy>
    <i name="alphaZ">     13.16681942 </i>
    <i name="ewald">   -907.64404347 </i>
    <i name="hartreedc">    -45.32085545 </i>
    <i name="XCdc">    -74.74767724 </i>
    <i name="pawpsdc">    704.99039692 </i>
    <i name="pawaedc">   -564.24414232 </i>
    <i name="eentropy">      0.00000000 </i>
    <i name="bandstr">    121.15176043 </i>
    <i name="atom">    824.53081094 </i>
    <i name="e_fr_energy">     71.88306922 </i>
    <i name="e_wo_entrp">     71.88306922 </i>
    <i name="e_0_energy">     71.88306922 </i>
   </energy>
  </scstep>
  <scstep>
   <time name="dav">    0.23    0.25</time>
   <time name="total">    0.23    0.27</time>
   <energy>
    <i name="e_fr_energy">    -38.24503391 </i>
    <i name="e_wo_entrp">    -38.24503391 </i>
    <i name="e_0_energy">    -38.24503391 </i>
   </energy>
  </scstep>
  <scstep>
   <time name="dav">    0.24    0.24</time>
   <time name="total">    0.24    0.25</time>
   <energy>
    <i name="e_fr_energy">    -43.94852235 </i>
    <i name="e_wo_entrp">    -43.94852235 </i>
    <i name="e_0_energy">    -43.94852235 </i>
   </energy>
  </scstep>
  <scstep>
   <time name="dav">    0.21    0.22</time>
   <time name="total">    0.22    0.23</time>
   <energy>
    <i name="e_fr_energy">    -44.06844050 </i>
    <i name="e_wo_entrp">    -44.06844050 </i>
    <i name="e_0_energy">    -44.06844050 </i>
   </energy>
  </scstep>
  <scstep>
   <time name="dav">    0.23    0.24</time>
   <time name="total">    0.30    0.35</time>
   <energy>
    <i name="e_fr_energy">    -44.07090954 </i>
    <i name="e_wo_entrp">    -44.07090954 </i>
    <i name="e_0_energy">    -44.07090954 </i>
   </energy>
  </scstep>
  <scstep>
   <time name="diag">    0.05    0.06</time>
   <time name="diis">    0.14    0.15</time>
   <time name="orth">    0.00    0.00</time>
   <time name="total">    0.31    0.37</time>
   <energy>
    <i name="e_fr_energy">    -43.60774513 </i>
    <i name="e_wo_entrp">    -43.60774513 </i>
    <i name="e_0_energy">    -43.60774513 </i>
   </energy>
  </scstep>
  <scstep>
   <time name="diag">    0.04    0.04</time>
   <time name="diis">    0.14    0.14</time>
   <time name="orth">    0.00    0.00</time>
   <time name="total">    0.30    0.31</time>
   <energy>
    <i name="e_fr_energy">    -43.39443418 </i>
    <i name="e_wo_entrp">    -43.39443418 </i>
    <i name="e_0_energy">    -43.39443418 </i>
   </energy>
  </scstep>
  <scstep>
   <time name="diag">    0.04    0.04</time>
   <time name="diis">    0.13    0.14</time>
   <time name="orth">    0.00    0.00</time>
   <time name="total">    0.30    0.32</time>
   <energy>
    <i name="e_fr_energy">    -43.39783747 </i>
    <i name="e_wo_entrp">    -43.39783747 </i>
    <i name="e_0_energy">    -43.39783747 </i>
   </energy>
  </scstep>
  <scstep>
   <time name="diag">    0.04    0.04</time>
   <time name="diis">    0.13    0.13</time>
   <time name="orth">    0.00    0.00</time>
   <time name="total">    0.30    0.31</time>
   <energy>
    <i name="e_fr_energy">    -43.39867814 </i>
    <i name="e_wo_entrp">    -43.39867814 </i>
    <i name="e_0_energy">    -43.39867814 </i>
   </energy>
  </scstep>
  <scstep>
   <time name="diag">    0.04    0.04</time>
   <time name="diis">    0.14    0.14</time>
   <time name="orth">    0.00    0.00</time>
   <time name="total">    0.30    0.31</time>
   <energy>
    <i name="e_fr_energy">    -43.39882379 </i>
    <i name="e_wo_entrp">    -43.39882379 </i>
    <i name="e_0_energy">    -43.39882379 </i>
   </energy>
  </scstep>
  <scstep>
   <time name="diag">    0.04    0.04</time>
   <time name="diis">    0.10    0.10</time>
   <time name="orth">    0.00    0.00</time>
   <time name="total">    0.20    0.22</time>
   <energy>
    <i name="alphaZ">     13.16681942 </i>
    <i name="ewald">   -907.64404347 </i>
    <i name="hartreedc">    -60.71228996 </i>
    <i name="XCdc">    -72.24958143 </i>
    <i name="pawpsdc">   3319.13562914 </i>
    <i name="pawaedc">  -3179.20976323 </i>
    <i name="eentropy">      0.00000000 </i>
    <i name="bandstr">     19.58359579 </i>
    <i name="atom">    824.53081094 </i>
    <i name="e_fr_energy">    -43.39882282 </i>
    <i name="e_wo_entrp">    -43.39882282 </i>
    <i name="e_0_energy">    -43.39882282 </i>
   </energy>
  </scstep>
  <structure>
   <crystal>
    <varray name="basis" >
     <v>       5.46954500       0.00000000       0.00000000 </v>
     <v>       0.00000000       5.46954500       0.00000000 </v>
     <v>       0.00000000       0.00000000       5.46954500 </v>
    </varray>
    <i name="volume">    163.62648437 </i>
    <varray name="rec_basis" >
     <v>       0.18283056       0.00000000       0.00000000 </v>
     <v>       0.00000000       0.18283056       0.00000000 </v>
     <v>       0.00000000       0.00000000       0.18283056 </v>
    </varray>
   </crystal>
   <varray name="positions" >
    <v>       0.25000000       0.25000000       0.25000000 </v>
    <v>       0.00000000       0.50000000       0.50000000 </v>
    <v>       0.25000000       0.75000000       0.75000000 </v>
    <v>       0.00000000       0.00000000       0.00000000 </v>
    <v>       0.75000000       0.25000000       0.75000000 </v>
    <v>       0.50000000       0.50000000       0.00000000 </v>
    <v>       0.75000000       0.75000000       0.25000000 </v>
    <v>       0.50000000       0.00000000       0.50000000 </v>
   </varray>
  </structure>
  <varray name="forces" >
   <v>       0.00000000      -0.00000000       0.00000000 </v>
   <v>      -0.00000000      -0.00000000      -0.00000000 </v>
   <v>       0.00000000       0.00000000       0.00000000 </v>
   <v>      -0.00000000       0.00000000      -0.00000000 </v>
   <v>       0.00000000       0.00000000       0.00000000 </v>
   <v>      -0.00000000       0.00000000      -0.00000000 </v>
   <v>       0.00000000      -0.00000000       0.00000000 </v>
   <v>      -0.00000000      -0.00000000      -0.00000000 </v>
  </varray>
  <varray name="stress" >
   <v>       0.13153879      -0.00000000       0.00000000 </v>
   <v>       0.00000000       0.13153879       0.00000000 </v>
   <v>      -0.00000000      -0.00000000       0.13153879 </v>
  </varray>
  <energy>
   <i name="e_fr_energy">    -43.39882282 </i>
   <i name="e_wo_entrp">    -43.39882282 </i>
   <i name="e_0_energy">      0.00000000 </i>
  </energy>
  <time name="totalsc">    4.11    4.74</time>
  <eigenvalues>
   <array>
    <dimension dim="1">band</dimension>
    <dimension dim="2">kpoint</dimension>
    <dimension dim="3">spin</dimension>
    <field>eigene</field>
    <field>occ</field>
    <set>
     <set comment="spin 1">
      <set comment="kpoint 1">
       <r>   -6.2003    1.0000 </r>
       <r>   -2.1334    1.0000 </r>
       <r>   -2.1334    1.0000 </r>
       <r>   -2.1334    1.0000 </r>
       <r>   -2.1334    1.0000 </r>
       <r>   -2.1334    1.0000 </r>
       <r>   -2.1334    1.0000 </r>
       <r>    2.8187    1.0000 </r>
       <r>    2.8187    1.0000 </r>
       <r>    2.8187    1.0000 </r>
       <r>    2.8187    1.0000 </r>
       <r>    2.8187    1.0000 </r>
       <r>    2.8187    1.0000 </r>
       <r>    5.6116    1.0000 </r>
       <r>    5.6116    1.0000 </r>
       <r>    5.6116    1.0000 </r>
       <r>    6.3641    0.0000 </r>
       <r>    6.3641    0.0000 </r>
       <r>    6.3641    0.0000 </r>
       <r>    6.3641    0.0000 </r>
       <r>    6.3641    0.0000 </r>
       <r>    6.3641    0.0000 </r>
       <r>    8.1684    0.0000 </r>
       <r>    8.1684    0.0000 </r>
      </set>
      <set comment="kpoint 2">
       <r>   -6.0286    1.0000 </r>
       <r>   -3.5382    1.0000 </r>
       <r>   -2.0831    1.0000 </r>
       <r>   -2.0831    1.0000 </r>
       <r>   -2.0831    1.0000 </r>
       <r>   -2.0831    1.0000 </r>
       <r>   -0.5249    1.0000 </r>
       <r>    2.4239    1.0000 </r>
       <r>    2.4239    1.0000 </r>
       <r>    2.4239    1.0000 </r>
       <r>    2.4239    1.0000 </r>
       <r>    2.9736    1.0000 </r>
       <r>    2.9736    1.0000 </r>
       <r>    4.6555    1.0000 </r>
       <r>    5.0505    1.0000 </r>
       <r>    5.0505    1.0000 </r>
       <r>    6.2302    0.0000 </r>
       <r>    6.9619    0.0000 </r>
       <r>    7.1983    0.0000 </r>
       <r>    7.1983    0.0000 </r>
       <r>    7.1983    0.0000 </r>
       <r>    7.1983    0.0000 </r>
       <r>    7.7968    0.0000 </r>
       <r>    8.9404    0.0000 </r>
      </set>
      <set comment="kpoint 3">
       <r>   -5.5175    1.0000 </r>
       <r>   -4.6794    1.0000 </r>
       <r>   -1.9950    1.0000 </r>
       <r>   -1.9950    1.0000 </r>
       <r>   -1.9950    1.0000 </r>
       <r>   -1.9950    1.0000 </r>
       <r>    1.2076    1.0000 </r>
       <r>    1.9274    1.0000 </r>
       <r>    1.9274    1.0000 </r>
       <r>    1.9274    1.0000 </r>
       <r>    1.9274    1.0000 </r>
       <r>    2.9766    1.0000 </r>
       <r>    3.4304    1.0000 </r>
       <r>    3.4304    1.0000 </r>
       <r>    4.1580    1.0000 </r>
       <r>    4.1580    1.0000 </r>
       <r>    6.5017    0.0000 </r>
       <r>    7.0882    0.0000 </r>
       <r>    8.0484    0.0000 </r>
       <r>    9.0370    0.0000 </r>
       <r>    9.0370    0.0000 </r>
       <r>    9.0370    0.0000 </r>
       <r>    9.0370    0.0000 </r>
       <r>    9.4639    0.0000 </r>
      </set>
      <set comment="kpoint 4">
       <r>   -5.8592    1.0000 </r>
       <r>   -3.4234    1.0000 </r>
       <r>   -3.4234    1.0000 </r>
       <r>   -2.3635    1.0000 </r>
       <r>   -1.7603    1.0000 </r>
       <r>   -0.6101    1.0000 </r>
       <r>   -0.6101    1.0000 </r>
       <r>    1.6445    1.0000 </r>
       <r>    2.4648    1.0000 </r>
       <r>    2.4648    1.0000 </r>
       <r>    2.7858    1.0000 </r>
       <r>    2.7858    1.0000 </r>
       <r>    3.0894    1.0000 </r>
       <r>    3.5847    1.0000 </r>
       <r>    4.4812    1.0000 </r>
       <r>    5.4362    1.0000 </r>
       <r>    6.6761    0.0000 </r>
       <r>    7.1152    0.0000 </r>
       <r>    7.1152    0.0000 </r>
       <r>    7.7085    0.0000 </r>
       <r>    7.7085    0.0000 </r>
       <r>    8.5216    0.0000 </r>
       <r>    8.5227    0.0000 </r>
       <r>    8.7008    0.0000 </r>
      </set>
      <set comment="kpoint 5">
       <r>   -5.3555    1.0000 </r>
       <r>   -4.5331    1.0000 </r>
       <r>   -3.1121    1.0000 </r>
       <r>   -2.7117    1.0000 </r>
       <r>   -1.3410    1.0000 </r>
       <r>   -0.9019    1.0000 </r>
       <r>    0.8618    1.0000 </r>
       <r>    1.3785    1.0000 </r>
       <r>    1.7246    1.0000 </r>
       <r>    2.2502    1.0000 </r>
       <r>    2.6912    1.0000 </r>
       <r>    2.8672    1.0000 </r>
       <r>    2.9601    1.0000 </r>
       <r>    3.5717    1.0000 </r>
       <r>    3.5798    1.0000 </r>
       <r>    4.6566    1.0000 </r>
       <r>    7.3985    0.0000 </r>
       <r>    7.7866    0.0000 </r>
       <r>    7.9566    0.0000 </r>
       <r>    8.6782    0.0000 </r>
       <r>    8.9939    0.0000 </r>
       <r>    9.2588    0.0000 </r>
       <r>    9.3916    0.0000 </r>
       <r>    9.9863    0.0000 </r>
      </set>
      <set comment="kpoint 6">
       <r>   -4.8772    1.0000 </r>
       <r>   -4.1098    1.0000 </r>
       <r>   -4.1098    1.0000 </r>
       <r>   -3.4646    1.0000 </r>
       <r>   -0.6501    1.0000 </r>
       <r>    0.1233    1.0000 </r>
       <r>    0.1233    1.0000 </r>
       <r>    1.1656    1.0000 </r>
       <r>    1.4453    1.0000 </r>
       <r>    2.0103    1.0000 </r>
       <r>    2.0103    1.0000 </r>
       <r>    2.6797    1.0000 </r>
       <r>    3.8332    1.0000 </r>
       <r>    3.8610    1.0000 </r>
       <r>    3.8610    1.0000 </r>
       <r>    4.7809    1.0000 </r>
       <r>    7.5303    0.0000 </r>
       <r>    8.4616    0.0000 </r>
       <r>    8.7706    0.0000 </r>
       <r>    8.7706    0.0000 </r>
       <r>    9.2491    0.0000 </r>
       <r>    9.2492    0.0000 </r>
       <r>    9.5772    0.0000 </r>
       <r>    9.8845    0.0000 </r>
      </set>
      <set comment="kpoint 7">
       <r>   -5.6925    1.0000 </r>
       <r>   -3.3450    1.0000 </r>
       <r>   -3.3450    1.0000 </r>
       <r>   -3.3450    1.0000 </r>
       <r>   -0.7659    1.0000 </r>
       <r>   -0.7659    1.0000 </r>
       <r>   -0.7659    1.0000 </r>
       <r>    2.0101    1.0000 </r>
       <r>    2.0101    1.0000 </r>
       <r>    2.0101    1.0000 </r>
       <r>    2.6302    1.0000 </r>
       <r>    3.2347    1.0000 </r>
       <r>    3.2347    1.0000 </r>
       <r>    3.2347    1.0000 </r>
       <r>    5.0443    1.0000 </r>
       <r>    5.0443    1.0000 </r>
       <r>    6.8704    0.0000 </r>
       <r>    6.8704    0.0000 </r>
       <r>    6.8704    0.0000 </r>
       <r>    7.7626    0.0000 </r>
       <r>    8.9557    0.0000 </r>
       <r>    8.9632    0.0000 </r>
       <r>    8.9878    0.0000 </r>
       <r>    8.9878    0.0000 </r>
      </set>
      <set comment="kpoint 8">
       <r>   -5.1987    1.0000 </r>
       <r>   -4.3990    1.0000 </r>
       <r>   -3.1958    1.0000 </r>
       <r>   -3.1958    1.0000 </r>
       <r>   -1.0574    1.0000 </r>
       <r>   -1.0574    1.0000 </r>
       <r>    0.3490    1.0000 </r>
       <r>    1.4402    1.0000 </r>
       <r>    1.8568    1.0000 </r>
       <r>    1.8568    1.0000 </r>
       <r>    3.0358    1.0000 </r>
       <r>    3.1984    1.0000 </r>
       <r>    3.1984    1.0000 </r>
       <r>    3.6580    1.0000 </r>
       <r>    4.3100    1.0000 </r>
       <r>    4.3541    1.0000 </r>
       <r>    7.3988    0.0000 </r>
       <r>    7.9583    0.0000 </r>
       <r>    7.9587    0.0000 </r>
       <r>    7.9587    0.0000 </r>
       <r>    8.9524    0.0000 </r>
       <r>    9.6836    0.0000 </r>
       <r>    9.9007    0.0000 </r>
       <r>    9.9515    0.0000 </r>
      </set>
      <set comment="kpoint 9">
       <r>   -4.7401    1.0000 </r>
       <r>   -4.0266    1.0000 </r>
       <r>   -4.0266    1.0000 </r>
       <r>   -3.5387    1.0000 </r>
       <r>   -1.0086    1.0000 </r>
       <r>   -0.4639    1.0000 </r>
       <r>   -0.4639    1.0000 </r>
       <r>    0.3808    1.0000 </r>
       <r>    2.2436    1.0000 </r>
       <r>    2.7623    1.0000 </r>
       <r>    2.7623    1.0000 </r>
       <r>    3.6031    1.0000 </r>
       <r>    3.9325    1.0000 </r>
       <r>    3.9505    1.0000 </r>
       <r>    3.9505    1.0000 </r>
       <r>    4.7166    1.0000 </r>
       <r>    7.6701    0.0000 </r>
       <r>    7.9614    0.0000 </r>
       <r>    8.3343    0.0000 </r>
       <r>    8.3343    0.0000 </r>
       <r>    8.8892    0.0000 </r>
       <r>    8.8893    0.0000 </r>
       <r>    9.2210    0.0000 </r>
       <r>    9.2998    0.0000 </r>
      </set>
      <set comment="kpoint 10">
       <r>   -4.3600    1.0000 </r>
       <r>   -3.8680    1.0000 </r>
       <r>   -3.8680    1.0000 </r>
       <r>   -3.8680    1.0000 </r>
       <r>   -1.1158    1.0000 </r>
       <r>   -1.1158    1.0000 </r>
       <r>   -1.1158    1.0000 </r>
       <r>   -0.5749    1.0000 </r>
       <r>    3.6647    1.0000 </r>
       <r>    3.6647    1.0000 </r>
       <r>    3.6647    1.0000 </r>
       <r>    4.1942    1.0000 </r>
       <r>    4.1942    1.0000 </r>
       <r>    4.1942    1.0000 </r>
       <r>    4.5045    1.0000 </r>
       <r>    4.5045    1.0000 </r>
       <r>    7.1590    0.0000 </r>
       <r>    7.7076    0.0000 </r>
       <r>    7.7076    0.0000 </r>
       <r>    7.7076    0.0000 </r>
       <r>    8.9221    0.0000 </r>
       <r>    8.9223    0.0000 </r>
       <r>    8.9242    0.0000 </r>
       <r>    9.0325    0.0000 </r>
      </set>
     </set>
    </set>
   </array>
  </eigenvalues>
  <separator name="orbital magnetization" >
   <v name="MAGDIPOLOUT">      0.00000000      0.00000000      0.00000000</v>
  </separator>
  <dos>
   <i name="efermi">      5.66328693 </i>
   <total>
    <array>
     <dimension dim="1">gridpoints</dimension>
     <dimension dim="2">spin</dimension>
     <field>energy</field>
     <field>total</field>
     <field>integrated</field>
     <set>
      <set comment="spin 1">
       <r>    -8.2003     0.0000     0.0000 </r>
       <r>    -8.1330     0.0000     0.0000 </r>
       <r>    -8.0657     0.0000     0.0000 </r>
       <r>    -7.9984     0.0000     0.0000 </r>
       <r>    -7.9311     0.0000     0.0000 </r>
       <r>    -7.8639     0.0000     0.0000 </r>
       <r>    -7.7966     0.0000     0.0000 </r>
       <r>    -7.7293     0.0000     0.0000 </r>
       <r>    -7.6620     0.0000     0.0000 </r>
       <r>    -7.5947     0.0000     0.0000 </r>
       <r>    -7.5274     0.0000     0.0000 </r>
       <r>    -7.4601     0.0000     0.0000 </r>
       <r>    -7.3928     0.0000     0.0000 </r>
       <r>    -7.3255     0.0000     0.0000 </r>
       <r>    -7.2583     0.0000     0.0000 </r>
       <r>    -7.1910     0.0000     0.0000 </r>
       <r>    -7.1237     0.0000     0.0000 </r>
       <r>    -7.0564     0.0000     0.0000 </r>
       <r>    -6.9891     0.0000     0.0000 </r>
       <r>    -6.9218     0.0000     0.0000 </r>
       <r>    -6.8545     0.0000     0.0000 </r>
       <r>    -6.7872     0.0000     0.0000 </r>
       <r>    -6.7199     0.0000     0.0000 </r>
       <r>    -6.6527     0.0000     0.0000 </r>
       <r>    -6.5854     0.0000     0.0000 </r>
       <r>    -6.5181     0.0000     0.0000 </r>
       <r>    -6.4508     0.0000     0.0000 </r>
       <r>    -6.3835     0.0000     0.0000 </r>
       <r>    -6.3162     0.0000     0.0000 </r>
       <r>    -6.2489     0.0000     0.0000 </r>
       <r>    -6.1816     0.0045     0.0000 </r>
       <r>    -6.1143     0.0944     0.0027 </r>
       <r>    -6.0471     0.3001     0.0153 </r>
       <r>    -5.9798     0.5640     0.0448 </r>
       <r>    -5.9125     0.7206     0.0887 </r>
       <r>    -5.8452     0.7618     0.1391 </r>
       <r>    -5.7779     0.7916     0.1911 </r>
       <r>    -5.7106     0.8646     0.2466 </r>
       <r>    -5.6433     0.9706     0.3083 </r>
       <r>    -5.5760     1.0834     0.3774 </r>
       <r>    -5.5088     1.2650     0.4545 </r>
       <r>    -5.4415     1.8005     0.5584 </r>
       <r>    -5.3742     2.2074     0.6939 </r>
       <r>    -5.3069     2.0730     0.8426 </r>
       <r>    -5.2396     1.7800     0.9720 </r>
       <r>    -5.1723     1.6235     1.0845 </r>
       <r>    -5.1050     1.6057     1.1932 </r>
       <r>    -5.0377     1.5755     1.3003 </r>
       <r>    -4.9704     1.5328     1.4049 </r>
       <r>    -4.9032     1.4777     1.5063 </r>
       <r>    -4.8359     1.8716     1.6275 </r>
       <r>    -4.7686     1.4501     1.7390 </r>
       <r>    -4.7013     0.8034     1.8106 </r>
       <r>    -4.6340     1.1097     1.8700 </r>
       <r>    -4.5667     1.6963     1.9639 </r>
       <r>    -4.4994     2.1462     2.0976 </r>
       <r>    -4.4321     2.2227     2.2450 </r>
       <r>    -4.3648     2.2925     2.3961 </r>
       <r>    -4.2976     2.2196     2.5566 </r>
       <r>    -4.2303     2.3793     2.7115 </r>
       <r>    -4.1630     2.5129     2.8762 </r>
       <r>    -4.0957     4.8334     3.0810 </r>
       <r>    -4.0284     4.4818     3.3944 </r>
       <r>    -3.9611     3.8689     3.6745 </r>
       <r>    -3.8938     3.2884     3.9153 </r>
       <r>    -3.8265     2.2076     4.1357 </r>
       <r>    -3.7592     2.3172     4.2878 </r>
       <r>    -3.6920     2.4446     4.4479 </r>
       <r>    -3.6247     2.5898     4.6172 </r>
       <r>    -3.5574     2.7529     4.7968 </r>
       <r>    -3.4901     4.8759     5.0608 </r>
       <r>    -3.4228     3.8753     5.3567 </r>
       <r>    -3.3555     3.7486     5.6107 </r>
       <r>    -3.2882     3.8486     5.8670 </r>
       <r>    -3.2209     3.7912     6.1249 </r>
       <r>    -3.1536     3.5019     6.3720 </r>
       <r>    -3.0864     2.1392     6.5676 </r>
       <r>    -3.0191     2.0530     6.7086 </r>
       <r>    -2.9518     1.9692     6.8439 </r>
       <r>    -2.8845     1.8880     6.9737 </r>
       <r>    -2.8172     1.8092     7.0981 </r>
       <r>    -2.7499     1.7329     7.2172 </r>
       <r>    -2.6826     1.5717     7.3291 </r>
       <r>    -2.6153     1.4530     7.4308 </r>
       <r>    -2.5480     1.3450     7.5249 </r>
       <r>    -2.4808     1.2476     7.6121 </r>
       <r>    -2.4135     1.1610     7.6931 </r>
       <r>    -2.3462     1.0895     7.7686 </r>
       <r>    -2.2789     1.0142     7.8396 </r>
       <r>    -2.2116     0.9063     7.9044 </r>
       <r>    -2.1443     0.7657     7.9608 </r>
       <r>    -2.0770     0.4604     8.0035 </r>
       <r>    -2.0097     0.4473     8.0331 </r>
       <r>    -1.9424     0.6243     8.0686 </r>
       <r>    -1.8752     0.7917     8.1164 </r>
       <r>    -1.8079     0.9230     8.1743 </r>
       <r>    -1.7406     1.0260     8.2399 </r>
       <r>    -1.6733     1.1405     8.3128 </r>
       <r>    -1.6060     1.2642     8.3936 </r>
       <r>    -1.5387     1.3971     8.4831 </r>
       <r>    -1.4714     1.5391     8.5818 </r>
       <r>    -1.4041     1.6903     8.6904 </r>
       <r>    -1.3368     2.0419     8.8103 </r>
       <r>    -1.2696     2.2177     8.9534 </r>
       <r>    -1.2023     2.4316     9.1096 </r>
       <r>    -1.1350     2.6836     9.2815 </r>
       <r>    -1.0677     6.7751     9.6359 </r>
       <r>    -1.0004     4.8202    10.1778 </r>
       <r>    -0.9331     5.3339    10.5191 </r>
       <r>    -0.8658     4.5795    10.8602 </r>
       <r>    -0.7985     4.0177    11.1494 </r>
       <r>    -0.7312     3.4842    11.4013 </r>
       <r>    -0.6640     3.1042    11.6220 </r>
       <r>    -0.5967     2.9392    11.8134 </r>
       <r>    -0.5294     2.5058    12.0277 </r>
       <r>    -0.4621     2.0199    12.1857 </r>
       <r>    -0.3948     2.0029    12.3211 </r>
       <r>    -0.3275     1.9863    12.4553 </r>
       <r>    -0.2602     1.9701    12.5884 </r>
       <r>    -0.1929     1.9542    12.7204 </r>
       <r>    -0.1256     1.9388    12.8514 </r>
       <r>    -0.0584     1.9237    12.9814 </r>
       <r>     0.0089     1.9090    13.1103 </r>
       <r>     0.0762     1.8946    13.2383 </r>
       <r>     0.1435     1.5539    13.3587 </r>
       <r>     0.2108     1.5388    13.4628 </r>
       <r>     0.2781     1.5209    13.5657 </r>
       <r>     0.3454     1.5002    13.6674 </r>
       <r>     0.4127     1.4801    13.7675 </r>
       <r>     0.4799     1.4542    13.8663 </r>
       <r>     0.5472     1.4268    13.9632 </r>
       <r>     0.6145     1.3977    14.0582 </r>
       <r>     0.6818     1.3671    14.1513 </r>
       <r>     0.7491     1.3349    14.2422 </r>
       <r>     0.8164     1.3011    14.3309 </r>
       <r>     0.8837     1.3432    14.4191 </r>
       <r>     0.9510     1.2754    14.5071 </r>
       <r>     1.0183     1.2199    14.5910 </r>
       <r>     1.0855     1.1766    14.6716 </r>
       <r>     1.1528     1.1456    14.7496 </r>
       <r>     1.2201     1.1112    14.8217 </r>
       <r>     1.2874     1.3623    14.9045 </r>
       <r>     1.3547     1.6799    15.0065 </r>
       <r>     1.4220     2.4232    15.1791 </r>
       <r>     1.4893     1.9804    15.3135 </r>
       <r>     1.5566     2.1221    15.4509 </r>
       <r>     1.6239     2.3674    15.6014 </r>
       <r>     1.6911     2.6173    15.7696 </r>
       <r>     1.7584     3.9817    15.9932 </r>
       <r>     1.8257     4.3311    16.2708 </r>
       <r>     1.8930     4.7294    16.5791 </r>
       <r>     1.9603     5.0702    16.9038 </r>
       <r>     2.0276     5.9034    17.2726 </r>
       <r>     2.0949     5.9533    17.6721 </r>
       <r>     2.1622     5.9097    18.0717 </r>
       <r>     2.2295     5.7726    18.4653 </r>
       <r>     2.2967     4.6545    18.8062 </r>
       <r>     2.3640     4.3262    19.1076 </r>
       <r>     2.4313     5.6484    19.3971 </r>
       <r>     2.4986     3.5648    19.7126 </r>
       <r>     2.5659     3.6469    19.9547 </r>
       <r>     2.6332     3.8310    20.2057 </r>
       <r>     2.7005     4.8058    20.4840 </r>
       <r>     2.7678     5.6431    20.8359 </r>
       <r>     2.8351     6.4584    21.2185 </r>
       <r>     2.9023     7.9562    21.7328 </r>
       <r>     2.9696     7.1756    22.2231 </r>
       <r>     3.0369     7.7772    22.7364 </r>
       <r>     3.1042     7.1226    23.2469 </r>
       <r>     3.1715     5.8842    23.6860 </r>
       <r>     3.2388     4.3089    24.0269 </r>
       <r>     3.3061     3.6977    24.2942 </r>
       <r>     3.3734     3.4408    24.5324 </r>
       <r>     3.4407     3.6695    24.7659 </r>
       <r>     3.5079     4.8857    25.0527 </r>
       <r>     3.5752     7.3647    25.4304 </r>
       <r>     3.6425     6.1470    25.9059 </r>
       <r>     3.7098     5.7910    26.3469 </r>
       <r>     3.7771     5.8902    26.7401 </r>
       <r>     3.8444     6.8630    27.1492 </r>
       <r>     3.9117     7.8091    27.6866 </r>
       <r>     3.9790     5.3641    28.1241 </r>
       <r>     4.0463     4.7807    28.4655 </r>
       <r>     4.1135     4.1908    28.7673 </r>
       <r>     4.1808     3.6050    29.0294 </r>
       <r>     4.2481     2.4106    29.2592 </r>
       <r>     4.3154     2.1823    29.4135 </r>
       <r>     4.3827     2.4951    29.5643 </r>
       <r>     4.4500     3.2851    29.7586 </r>
       <r>     4.5173     4.3793    30.0429 </r>
       <r>     4.5846     5.0211    30.3600 </r>
       <r>     4.6519     5.5146    30.7153 </r>
       <r>     4.7191     5.6927    31.0722 </r>
       <r>     4.7864     1.7754    31.3590 </r>
       <r>     4.8537     1.5365    31.4704 </r>
       <r>     4.9210     1.3129    31.5661 </r>
       <r>     4.9883     1.1048    31.6474 </r>
       <r>     5.0556     0.9366    31.7152 </r>
       <r>     5.1229     0.9660    31.7797 </r>
       <r>     5.1902     0.9212    31.8436 </r>
       <r>     5.2575     0.8022    31.9020 </r>
       <r>     5.3247     0.6089    31.9499 </r>
       <r>     5.3920     0.3413    31.9823 </r>
       <r>     5.4593     0.0943    31.9952 </r>
       <r>     5.5266     0.0294    31.9992 </r>
       <r>     5.5939     0.0013    32.0000 </r>
       <r>     5.6612     0.0000    32.0000 </r>
       <r>     5.7285     0.0000    32.0000 </r>
       <r>     5.7958     0.0000    32.0000 </r>
       <r>     5.8631     0.0000    32.0000 </r>
       <r>     5.9303     0.0000    32.0000 </r>
       <r>     5.9976     0.0000    32.0000 </r>
       <r>     6.0649     0.0000    32.0000 </r>
       <r>     6.1322     0.0000    32.0000 </r>
       <r>     6.1995     0.0000    32.0000 </r>
       <r>     6.2668     0.1376    32.0026 </r>
       <r>     6.3341     0.3105    32.0183 </r>
       <r>     6.4014     0.3992    32.0423 </r>
       <r>     6.4686     0.5004    32.0724 </r>
       <r>     6.5359     0.6327    32.1104 </r>
       <r>     6.6032     0.7581    32.1573 </r>
       <r>     6.6705     0.8587    32.2118 </r>
       <r>     6.7378     0.9357    32.2720 </r>
       <r>     6.8051     1.0578    32.3388 </r>
       <r>     6.8724     1.2280    32.4154 </r>
       <r>     6.9397     1.6539    32.5099 </r>
       <r>     7.0070     2.5304    32.6501 </r>
       <r>     7.0742     2.8711    32.8360 </r>
       <r>     7.1415     3.2858    33.0329 </r>
       <r>     7.2088     3.1410    33.2737 </r>
       <r>     7.2761     3.5371    33.4985 </r>
       <r>     7.3434     3.9243    33.7495 </r>
       <r>     7.4107     6.6021    34.1031 </r>
       <r>     7.4780     6.0189    34.5273 </r>
       <r>     7.5453     6.0515    34.9240 </r>
       <r>     7.6126     4.9710    35.2943 </r>
       <r>     7.6798     2.7260    35.5820 </r>
       <r>     7.7471     3.8349    35.8504 </r>
       <r>     7.8144     5.2555    36.1506 </r>
       <r>     7.8817     6.6202    36.5491 </r>
       <r>     7.9490     8.1783    37.0459 </r>
       <r>     8.0163     7.0118    37.7319 </r>
       <r>     8.0836     5.7877    38.1425 </r>
       <r>     8.1509     5.6392    38.5274 </r>
       <r>     8.2182     5.4178    38.8997 </r>
       <r>     8.2854     5.1340    39.2551 </r>
       <r>     8.3527     4.1400    39.5770 </r>
       <r>     8.4200     3.9129    39.8478 </r>
       <r>     8.4873     3.5589    40.0996 </r>
       <r>     8.5546     3.4886    40.3366 </r>
       <r>     8.6219     3.4491    40.5698 </r>
       <r>     8.6892     3.4371    40.8021 </r>
       <r>     8.7565     3.0659    41.0184 </r>
       <r>     8.8238     2.7697    41.2037 </r>
       <r>     8.8910    16.8352    41.4187 </r>
       <r>     8.9583    10.7788    42.4229 </r>
       <r>     9.0256     7.7083    43.1326 </r>
       <r>     9.0929     6.8475    43.6104 </r>
       <r>     9.1602     7.0234    44.0767 </r>
       <r>     9.2275     7.0557    44.5558 </r>
       <r>     9.2948     6.7900    45.0186 </r>
       <r>     9.3621     6.3983    45.4511 </r>
       <r>     9.4294     6.0519    45.8736 </r>
       <r>     9.4966     5.5418    46.2636 </r>
       <r>     9.5639     4.9658    46.6177 </r>
       <r>     9.6312     3.9520    46.9129 </r>
       <r>     9.6985     3.2938    47.1543 </r>
       <r>     9.7658     2.9453    47.3642 </r>
       <r>     9.8331     2.5999    47.5507 </r>
       <r>     9.9004     2.4377    47.7142 </r>
       <r>     9.9677     3.7302    47.9368 </r>
       <r>    10.0350     0.0000    48.0000 </r>
       <r>    10.1022     0.0000    48.0000 </r>
       <r>    10.1695     0.0000    48.0000 </r>
       <r>    10.2368     0.0000    48.0000 </r>
       <r>    10.3041     0.0000    48.0000 </r>
       <r>    10.3714     0.0000    48.0000 </r>
       <r>    10.4387     0.0000    48.0000 </r>
       <r>    10.5060     0.0000    48.0000 </r>
       <r>    10.5733     0.0000    48.0000 </r>
       <r>    10.6406     0.0000    48.0000 </r>
       <r>    10.7078     0.0000    48.0000 </r>
       <r>    10.7751     0.0000    48.0000 </r>
       <r>    10.8424     0.0000    48.0000 </r>
       <r>    10.9097     0.0000    48.0000 </r>
       <r>    10.9770     0.0000    48.0000 </r>
       <r>    11.0443     0.0000    48.0000 </r>
       <r>    11.1116     0.0000    48.0000 </r>
       <r>    11.1789     0.0000    48.0000 </r>
       <r>    11.2462     0.0000    48.0000 </r>
       <r>    11.3134     0.0000    48.0000 </r>
       <r>    11.3807     0.0000    48.0000 </r>
       <r>    11.4480     0.0000    48.0000 </r>
       <r>    11.5153     0.0000    48.0000 </r>
       <r>    11.5826     0.0000    48.0000 </r>
       <r>    11.6499     0.0000    48.0000 </r>
       <r>    11.7172     0.0000    48.0000 </r>
       <r>    11.7845     0.0000    48.0000 </r>
       <r>    11.8518     0.0000    48.0000 </r>
       <r>    11.9190     0.0000    48.0000 </r>
       <r>    11.9863     0.0000    48.0000 </r>
      </set>
     </set>
    </array>
   </total>
  </dos>
 </calculation>
 <structure name="finalpos" >
  <crystal>
   <varray name="basis" >
    <v>       5.46954500       0.00000000       0.00000000 </v>
    <v>       0.00000000       5.46954500       0.00000000 </v>
    <v>       0.00000000       0.00000000       5.46954500 </v>
   </varray>
   <i name="volume">    163.62648437 </i>
   <varray name="rec_basis" >
    <v>       0.18283056       0.00000000       0.00000000 </v>
    <v>       0.00000000       0.18283056       0.00000000 </v>
    <v>       0.00000000       0.00000000       0.18283056 </v>
   </varray>
  </crystal>
  <varray name="positions" >
   <v>       0.25000000       0.25000000       0.25000000 </v>
   <v>       0.00000000       0.50000000       0.50000000 </v>
   <v>       0.25000000       0.75000000       0.75000000 </v>
   <v>       0.00000000       0.00000000       0.00000000 </v>
   <v>       0.75000000       0.25000000       0.75000000 </v>
   <v>       0.50000000       0.50000000       0.00000000 </v>
   <v>       0.75000000       0.75000000       0.25000000 </v>
   <v>       0.50000000       0.00000000       0.50000000 </v>
  </varray>
 </structure>
</modeling>
