   8   8   0   0
  0.2045331E+02  0.5469545E-09  0.5469545E-09  0.5469545E-09  0.2000000E-15
  1.000000000000000E-004
  CAR 
 unknown system                          
     11.98632820     -8.20030172  301      5.66328693      1.00000000
     -8.200  0.0000E+00  0.0000E+00
     -8.133  0.0000E+00  0.0000E+00
     -8.066  0.0000E+00  0.0000E+00
     -7.998  0.0000E+00  0.0000E+00
     -7.931  0.0000E+00  0.0000E+00
     -7.864  0.0000E+00  0.0000E+00
     -7.797  0.0000E+00  0.0000E+00
     -7.729  0.0000E+00  0.0000E+00
     -7.662  0.0000E+00  0.0000E+00
     -7.595  0.0000E+00  0.0000E+00
     -7.527  0.0000E+00  0.0000E+00
     -7.460  0.0000E+00  0.0000E+00
     -7.393  0.0000E+00  0.0000E+00
     -7.326  0.0000E+00  0.0000E+00
     -7.258  0.0000E+00  0.0000E+00
     -7.191  0.0000E+00  0.0000E+00
     -7.124  0.0000E+00  0.0000E+00
     -7.056  0.0000E+00  0.0000E+00
     -6.989  0.0000E+00  0.0000E+00
     -6.922  0.0000E+00  0.0000E+00
     -6.855  0.0000E+00  0.0000E+00
     -6.787  0.0000E+00  0.0000E+00
     -6.720  0.0000E+00  0.0000E+00
     -6.653  0.0000E+00  0.0000E+00
     -6.585  0.0000E+00  0.0000E+00
     -6.518  0.0000E+00  0.0000E+00
     -6.451  0.0000E+00  0.0000E+00
     -6.384  0.0000E+00  0.0000E+00
     -6.316  0.0000E+00  0.0000E+00
     -6.249  0.0000E+00  0.0000E+00
     -6.182  0.2967E-04  0.1846E-06
     -6.114  0.6293E-03  0.1803E-04
     -6.047  0.2000E-02  0.1022E-03
     -5.980  0.3760E-02  0.2985E-03
     -5.912  0.4804E-02  0.5911E-03
     -5.845  0.5079E-02  0.9275E-03
     -5.778  0.5278E-02  0.1274E-02
     -5.711  0.5764E-02  0.1644E-02
     -5.643  0.6471E-02  0.2055E-02
     -5.576  0.7223E-02  0.2516E-02
     -5.509  0.8434E-02  0.3030E-02
     -5.441  0.1200E-01  0.3722E-02
     -5.374  0.1472E-01  0.4626E-02
     -5.307  0.1382E-01  0.5617E-02
     -5.240  0.1187E-01  0.6480E-02
     -5.172  0.1082E-01  0.7230E-02
     -5.105  0.1070E-01  0.7955E-02
     -5.038  0.1050E-01  0.8668E-02
     -4.970  0.1022E-01  0.9366E-02
     -4.903  0.9851E-02  0.1004E-01
     -4.836  0.1248E-01  0.1085E-01
     -4.769  0.9667E-02  0.1159E-01
     -4.701  0.5356E-02  0.1207E-01
     -4.634  0.7398E-02  0.1247E-01
     -4.567  0.1131E-01  0.1309E-01
     -4.499  0.1431E-01  0.1398E-01
     -4.432  0.1482E-01  0.1497E-01
     -4.365  0.1528E-01  0.1597E-01
     -4.298  0.1480E-01  0.1704E-01
     -4.230  0.1586E-01  0.1808E-01
     -4.163  0.1675E-01  0.1917E-01
     -4.096  0.3222E-01  0.2054E-01
     -4.028  0.2988E-01  0.2263E-01
     -3.961  0.2579E-01  0.2450E-01
     -3.894  0.2192E-01  0.2610E-01
     -3.827  0.1472E-01  0.2757E-01
     -3.759  0.1545E-01  0.2859E-01
     -3.692  0.1630E-01  0.2965E-01
     -3.625  0.1727E-01  0.3078E-01
     -3.557  0.1835E-01  0.3198E-01
     -3.490  0.3251E-01  0.3374E-01
     -3.423  0.2584E-01  0.3571E-01
     -3.356  0.2499E-01  0.3740E-01
     -3.288  0.2566E-01  0.3911E-01
     -3.221  0.2527E-01  0.4083E-01
     -3.154  0.2335E-01  0.4248E-01
     -3.086  0.1426E-01  0.4378E-01
     -3.019  0.1369E-01  0.4472E-01
     -2.952  0.1313E-01  0.4563E-01
     -2.884  0.1259E-01  0.4649E-01
     -2.817  0.1206E-01  0.4732E-01
     -2.750  0.1155E-01  0.4811E-01
     -2.683  0.1048E-01  0.4886E-01
     -2.615  0.9686E-02  0.4954E-01
     -2.548  0.8966E-02  0.5017E-01
     -2.481  0.8318E-02  0.5075E-01
     -2.413  0.7740E-02  0.5129E-01
     -2.346  0.7263E-02  0.5179E-01
     -2.279  0.6762E-02  0.5226E-01
     -2.212  0.6042E-02  0.5270E-01
     -2.144  0.5105E-02  0.5307E-01
     -2.077  0.3069E-02  0.5336E-01
     -2.010  0.2982E-02  0.5355E-01
     -1.942  0.4162E-02  0.5379E-01
     -1.875  0.5278E-02  0.5411E-01
     -1.808  0.6154E-02  0.5450E-01
     -1.741  0.6840E-02  0.5493E-01
     -1.673  0.7603E-02  0.5542E-01
     -1.606  0.8428E-02  0.5596E-01
     -1.539  0.9314E-02  0.5655E-01
     -1.471  0.1026E-01  0.5721E-01
     -1.404  0.1127E-01  0.5794E-01
     -1.337  0.1361E-01  0.5874E-01
     -1.270  0.1478E-01  0.5969E-01
     -1.202  0.1621E-01  0.6073E-01
     -1.135  0.1789E-01  0.6188E-01
     -1.068  0.4517E-01  0.6424E-01
     -1.000  0.3213E-01  0.6785E-01
     -0.933  0.3556E-01  0.7013E-01
     -0.866  0.3053E-01  0.7240E-01
     -0.799  0.2678E-01  0.7433E-01
     -0.731  0.2323E-01  0.7601E-01
     -0.664  0.2069E-01  0.7748E-01
     -0.597  0.1959E-01  0.7876E-01
     -0.529  0.1671E-01  0.8018E-01
     -0.462  0.1347E-01  0.8124E-01
     -0.395  0.1335E-01  0.8214E-01
     -0.328  0.1324E-01  0.8304E-01
     -0.260  0.1313E-01  0.8392E-01
     -0.193  0.1303E-01  0.8480E-01
     -0.126  0.1293E-01  0.8568E-01
     -0.058  0.1282E-01  0.8654E-01
      0.009  0.1273E-01  0.8740E-01
      0.076  0.1263E-01  0.8826E-01
      0.144  0.1036E-01  0.8906E-01
      0.211  0.1026E-01  0.8975E-01
      0.278  0.1014E-01  0.9044E-01
      0.345  0.1000E-01  0.9112E-01
      0.413  0.9867E-02  0.9178E-01
      0.480  0.9695E-02  0.9244E-01
      0.547  0.9512E-02  0.9309E-01
      0.615  0.9318E-02  0.9372E-01
      0.682  0.9114E-02  0.9434E-01
      0.749  0.8899E-02  0.9495E-01
      0.816  0.8674E-02  0.9554E-01
      0.884  0.8954E-02  0.9613E-01
      0.951  0.8503E-02  0.9671E-01
      1.018  0.8133E-02  0.9727E-01
      1.086  0.7844E-02  0.9781E-01
      1.153  0.7638E-02  0.9833E-01
      1.220  0.7408E-02  0.9881E-01
      1.287  0.9082E-02  0.9936E-01
      1.355  0.1120E-01  0.1000E+00
      1.422  0.1615E-01  0.1012E+00
      1.489  0.1320E-01  0.1021E+00
      1.557  0.1415E-01  0.1030E+00
      1.624  0.1578E-01  0.1040E+00
      1.691  0.1745E-01  0.1051E+00
      1.758  0.2654E-01  0.1066E+00
      1.826  0.2887E-01  0.1085E+00
      1.893  0.3153E-01  0.1105E+00
      1.960  0.3380E-01  0.1127E+00
      2.028  0.3936E-01  0.1152E+00
      2.095  0.3969E-01  0.1178E+00
      2.162  0.3940E-01  0.1205E+00
      2.229  0.3848E-01  0.1231E+00
      2.297  0.3103E-01  0.1254E+00
      2.364  0.2884E-01  0.1274E+00
      2.431  0.3766E-01  0.1293E+00
      2.499  0.2377E-01  0.1314E+00
      2.566  0.2431E-01  0.1330E+00
      2.633  0.2554E-01  0.1347E+00
      2.700  0.3204E-01  0.1366E+00
      2.768  0.3762E-01  0.1389E+00
      2.835  0.4306E-01  0.1415E+00
      2.902  0.5304E-01  0.1449E+00
      2.970  0.4784E-01  0.1482E+00
      3.037  0.5185E-01  0.1516E+00
      3.104  0.4748E-01  0.1550E+00
      3.171  0.3923E-01  0.1579E+00
      3.239  0.2873E-01  0.1602E+00
      3.306  0.2465E-01  0.1620E+00
      3.373  0.2294E-01  0.1635E+00
      3.441  0.2446E-01  0.1651E+00
      3.508  0.3257E-01  0.1670E+00
      3.575  0.4910E-01  0.1695E+00
      3.643  0.4098E-01  0.1727E+00
      3.710  0.3861E-01  0.1756E+00
      3.777  0.3927E-01  0.1783E+00
      3.844  0.4575E-01  0.1810E+00
      3.912  0.5206E-01  0.1846E+00
      3.979  0.3576E-01  0.1875E+00
      4.046  0.3187E-01  0.1898E+00
      4.114  0.2794E-01  0.1918E+00
      4.181  0.2403E-01  0.1935E+00
      4.248  0.1607E-01  0.1951E+00
      4.315  0.1455E-01  0.1961E+00
      4.383  0.1663E-01  0.1971E+00
      4.450  0.2190E-01  0.1984E+00
      4.517  0.2920E-01  0.2003E+00
      4.585  0.3347E-01  0.2024E+00
      4.652  0.3676E-01  0.2048E+00
      4.719  0.3795E-01  0.2071E+00
      4.786  0.1184E-01  0.2091E+00
      4.854  0.1024E-01  0.2098E+00
      4.921  0.8753E-02  0.2104E+00
      4.988  0.7365E-02  0.2110E+00
      5.056  0.6244E-02  0.2114E+00
      5.123  0.6440E-02  0.2119E+00
      5.190  0.6142E-02  0.2123E+00
      5.257  0.5348E-02  0.2127E+00
      5.325  0.4059E-02  0.2130E+00
      5.392  0.2276E-02  0.2132E+00
      5.459  0.6288E-03  0.2133E+00
      5.527  0.1959E-03  0.2133E+00
      5.594  0.8491E-05  0.2133E+00
      5.661  0.0000E+00  0.2133E+00
      5.728  0.0000E+00  0.2133E+00
      5.796  0.0000E+00  0.2133E+00
      5.863  0.0000E+00  0.2133E+00
      5.930  0.0000E+00  0.2133E+00
      5.998  0.0000E+00  0.2133E+00
      6.065  0.0000E+00  0.2133E+00
      6.132  0.0000E+00  0.2133E+00
      6.199  0.0000E+00  0.2133E+00
      6.267  0.9170E-03  0.2134E+00
      6.334  0.2070E-02  0.2135E+00
      6.401  0.2662E-02  0.2136E+00
      6.469  0.3336E-02  0.2138E+00
      6.536  0.4218E-02  0.2141E+00
      6.603  0.5054E-02  0.2144E+00
      6.671  0.5725E-02  0.2147E+00
      6.738  0.6238E-02  0.2151E+00
      6.805  0.7052E-02  0.2156E+00
      6.872  0.8187E-02  0.2161E+00
      6.940  0.1103E-01  0.2167E+00
      7.007  0.1687E-01  0.2177E+00
      7.074  0.1914E-01  0.2189E+00
      7.142  0.2191E-01  0.2202E+00
      7.209  0.2094E-01  0.2218E+00
      7.276  0.2358E-01  0.2233E+00
      7.343  0.2616E-01  0.2250E+00
      7.411  0.4401E-01  0.2274E+00
      7.478  0.4013E-01  0.2302E+00
      7.545  0.4034E-01  0.2328E+00
      7.613  0.3314E-01  0.2353E+00
      7.680  0.1817E-01  0.2372E+00
      7.747  0.2557E-01  0.2390E+00
      7.814  0.3504E-01  0.2410E+00
      7.882  0.4413E-01  0.2437E+00
      7.949  0.5452E-01  0.2470E+00
      8.016  0.4675E-01  0.2515E+00
      8.084  0.3858E-01  0.2543E+00
      8.151  0.3759E-01  0.2568E+00
      8.218  0.3612E-01  0.2593E+00
      8.285  0.3423E-01  0.2617E+00
      8.353  0.2760E-01  0.2638E+00
      8.420  0.2609E-01  0.2657E+00
      8.487  0.2373E-01  0.2673E+00
      8.555  0.2326E-01  0.2689E+00
      8.622  0.2299E-01  0.2705E+00
      8.689  0.2291E-01  0.2720E+00
      8.756  0.2044E-01  0.2735E+00
      8.824  0.1846E-01  0.2747E+00
      8.891  0.1122E+00  0.2761E+00
      8.958  0.7186E-01  0.2828E+00
      9.026  0.5139E-01  0.2876E+00
      9.093  0.4565E-01  0.2907E+00
      9.160  0.4682E-01  0.2938E+00
      9.227  0.4704E-01  0.2970E+00
      9.295  0.4527E-01  0.3001E+00
      9.362  0.4266E-01  0.3030E+00
      9.429  0.4035E-01  0.3058E+00
      9.497  0.3695E-01  0.3084E+00
      9.564  0.3311E-01  0.3108E+00
      9.631  0.2635E-01  0.3128E+00
      9.699  0.2196E-01  0.3144E+00
      9.766  0.1964E-01  0.3158E+00
      9.833  0.1733E-01  0.3170E+00
      9.900  0.1625E-01  0.3181E+00
      9.968  0.2487E-01  0.3196E+00
     10.035  0.0000E+00  0.3200E+00
     10.102  0.0000E+00  0.3200E+00
     10.170  0.0000E+00  0.3200E+00
     10.237  0.0000E+00  0.3200E+00
     10.304  0.0000E+00  0.3200E+00
     10.371  0.0000E+00  0.3200E+00
     10.439  0.0000E+00  0.3200E+00
     10.506  0.0000E+00  0.3200E+00
     10.573  0.0000E+00  0.3200E+00
     10.641  0.0000E+00  0.3200E+00
     10.708  0.0000E+00  0.3200E+00
     10.775  0.0000E+00  0.3200E+00
     10.842  0.0000E+00  0.3200E+00
     10.910  0.0000E+00  0.3200E+00
     10.977  0.0000E+00  0.3200E+00
     11.044  0.0000E+00  0.3200E+00
     11.112  0.0000E+00  0.3200E+00
     11.179  0.0000E+00  0.3200E+00
     11.246  0.0000E+00  0.3200E+00
     11.313  0.0000E+00  0.3200E+00
     11.381  0.0000E+00  0.3200E+00
     11.448  0.0000E+00  0.3200E+00
     11.515  0.0000E+00  0.3200E+00
     11.583  0.0000E+00  0.3200E+00
     11.650  0.0000E+00  0.3200E+00
     11.717  0.0000E+00  0.3200E+00
     11.784  0.0000E+00  0.3200E+00
     11.852  0.0000E+00  0.3200E+00
     11.919  0.0000E+00  0.3200E+00
     11.986  0.0000E+00  0.3200E+00
