 running on   24 total cores
 distrk:  each k-point on   24 cores,    1 groups
 distr:  one band on    6 cores,    4 groups
 using from now: INCAR     
 vasp.5.4.1 24Jun15 (build Nov 23 2015 09:58:10) complex                        
  
 POSCAR found type information on POSCAR  Si
 POSCAR found :  1 types and       8 ions
 scaLAPACK will be used

 ----------------------------------------------------------------------------- 
|                                                                             |
|  ADVICE TO THIS USER RUNNING 'VASP/VAMP'   (HEAR YOUR MASTER'S VOICE ...):  |
|                                                                             |
|      You have a (more or less) 'small supercell' and for smaller cells      |
|      it is recommended  to use the reciprocal-space projection scheme!      |
|      The real space optimization is not  efficient for small cells and it   |
|      is also less accurate ...                                              |
|      Therefore set LREAL=.FALSE. in the  INCAR file                         |
|                                                                             |
 ----------------------------------------------------------------------------- 

 LDA part: xc-table for Pade appr. of Perdew
 POSCAR, INCAR and KPOINTS ok, starting setup
 FFT: planning ...
 WAVECAR not read
 entering main loop
       N       E                     dE             d eps       ncg     rms          rms(c)
DAV:   1     0.718830692163E+02    0.71883E+02   -0.12182E+04   480   0.109E+03
DAV:   2    -0.382450339051E+02   -0.11013E+03   -0.10105E+03   624   0.157E+02
DAV:   3    -0.439485223499E+02   -0.57035E+01   -0.56071E+01   648   0.325E+01
DAV:   4    -0.440684404991E+02   -0.11992E+00   -0.11976E+00   576   0.571E+00
DAV:   5    -0.440709095366E+02   -0.24690E-02   -0.24672E-02   640   0.795E-01    0.950E+00
RMM:   6    -0.436077451297E+02    0.46316E+00   -0.23646E-01   480   0.184E+00    0.581E+00
RMM:   7    -0.433944341799E+02    0.21331E+00   -0.53845E-01   480   0.288E+00    0.315E-01
RMM:   8    -0.433978374714E+02   -0.34033E-02   -0.11811E-02   483   0.484E-01    0.150E-01
RMM:   9    -0.433986781421E+02   -0.84067E-03   -0.14140E-03   483   0.184E-01    0.100E-01
RMM:  10    -0.433988237874E+02   -0.14565E-03   -0.28434E-04   487   0.837E-02    0.129E-02
RMM:  11    -0.433988228158E+02    0.97157E-06   -0.26818E-05   356   0.257E-02
   1 F= -.43398823E+02 E0= -.43398823E+02  d E =-.433988E+02
 curvature:   0.00 expect dE= 0.000E+00 dE for cont linesearch  0.000E+00
 trial: gam= 0.00000 g(F)=  0.221E-59 g(S)=  0.131E-05 ort = 0.000E+00 (trialstep = 0.100E+01)
 search vector abs. value=  0.131E-05
 reached required accuracy - stopping structural energy minimisation
