   8   8   0   0
  0.2045331E+02  0.5469545E-09  0.5469545E-09  0.5469545E-09  0.2000000E-15
  1.000000000000000E-004
  CAR 
 unknown system                          
     12.04245886     -8.20029391  301      5.63436244      1.00000000
     -8.200  0.0000E+00  0.0000E+00
     -8.133  0.0000E+00  0.0000E+00
     -8.065  0.0000E+00  0.0000E+00
     -7.998  0.0000E+00  0.0000E+00
     -7.930  0.0000E+00  0.0000E+00
     -7.863  0.0000E+00  0.0000E+00
     -7.795  0.0000E+00  0.0000E+00
     -7.728  0.0000E+00  0.0000E+00
     -7.660  0.0000E+00  0.0000E+00
     -7.593  0.0000E+00  0.0000E+00
     -7.526  0.0000E+00  0.0000E+00
     -7.458  0.0000E+00  0.0000E+00
     -7.391  0.0000E+00  0.0000E+00
     -7.323  0.0000E+00  0.0000E+00
     -7.256  0.0000E+00  0.0000E+00
     -7.188  0.0000E+00  0.0000E+00
     -7.121  0.0000E+00  0.0000E+00
     -7.053  0.0000E+00  0.0000E+00
     -6.986  0.0000E+00  0.0000E+00
     -6.918  0.0000E+00  0.0000E+00
     -6.851  0.0000E+00  0.0000E+00
     -6.783  0.0000E+00  0.0000E+00
     -6.716  0.0000E+00  0.0000E+00
     -6.648  0.0000E+00  0.0000E+00
     -6.581  0.0000E+00  0.0000E+00
     -6.513  0.0000E+00  0.0000E+00
     -6.446  0.0000E+00  0.0000E+00
     -6.378  0.0000E+00  0.0000E+00
     -6.311  0.0000E+00  0.0000E+00
     -6.243  0.0000E+00  0.0000E+00
     -6.176  0.5020E-04  0.4062E-06
     -6.109  0.7171E-03  0.2193E-04
     -6.041  0.2160E-02  0.1146E-03
     -5.974  0.3889E-02  0.3222E-03
     -5.906  0.4862E-02  0.6218E-03
     -5.839  0.5085E-02  0.9608E-03
     -5.771  0.5313E-02  0.1310E-02
     -5.704  0.5830E-02  0.1684E-02
     -5.636  0.6548E-02  0.2102E-02
     -5.569  0.7306E-02  0.2569E-02
     -5.501  0.8873E-02  0.3095E-02
     -5.434  0.1236E-01  0.3816E-02
     -5.366  0.1498E-01  0.4743E-02
     -5.299  0.1357E-01  0.5728E-02
     -5.231  0.1165E-01  0.6576E-02
     -5.164  0.1081E-01  0.7321E-02
     -5.096  0.1068E-01  0.8047E-02
     -5.029  0.1047E-01  0.8761E-02
     -4.961  0.1017E-01  0.9458E-02
     -4.894  0.9795E-02  0.1013E-01
     -4.827  0.1207E-01  0.1096E-01
     -4.759  0.9294E-02  0.1168E-01
     -4.692  0.5230E-02  0.1212E-01
     -4.624  0.7939E-02  0.1254E-01
     -4.557  0.1194E-01  0.1321E-01
     -4.489  0.1442E-01  0.1413E-01
     -4.422  0.1485E-01  0.1512E-01
     -4.354  0.1377E-01  0.1623E-01
     -4.287  0.1498E-01  0.1721E-01
     -4.219  0.1602E-01  0.1825E-01
     -4.152  0.1688E-01  0.1936E-01
     -4.084  0.3182E-01  0.2091E-01
     -4.017  0.2903E-01  0.2297E-01
     -3.949  0.2511E-01  0.2480E-01
     -3.882  0.2124E-01  0.2636E-01
     -3.814  0.1484E-01  0.2775E-01
     -3.747  0.1559E-01  0.2878E-01
     -3.679  0.1647E-01  0.2986E-01
     -3.612  0.1746E-01  0.3100E-01
     -3.544  0.1857E-01  0.3222E-01
     -3.477  0.3402E-01  0.3417E-01
     -3.410  0.2543E-01  0.3605E-01
     -3.342  0.2517E-01  0.3774E-01
     -3.275  0.2567E-01  0.3946E-01
     -3.207  0.2506E-01  0.4118E-01
     -3.140  0.2278E-01  0.4280E-01
     -3.072  0.1414E-01  0.4399E-01
     -3.005  0.1357E-01  0.4492E-01
     -2.937  0.1301E-01  0.4582E-01
     -2.870  0.1247E-01  0.4668E-01
     -2.802  0.1195E-01  0.4750E-01
     -2.735  0.1144E-01  0.4829E-01
     -2.667  0.1029E-01  0.4902E-01
     -2.600  0.9514E-02  0.4969E-01
     -2.532  0.8808E-02  0.5031E-01
     -2.465  0.8175E-02  0.5088E-01
     -2.397  0.7612E-02  0.5141E-01
     -2.330  0.7162E-02  0.5191E-01
     -2.262  0.6606E-02  0.5237E-01
     -2.195  0.5830E-02  0.5279E-01
     -2.127  0.4824E-02  0.5316E-01
     -2.060  0.2933E-02  0.5341E-01
     -1.993  0.3176E-02  0.5361E-01
     -1.925  0.4473E-02  0.5387E-01
     -1.858  0.5530E-02  0.5420E-01
     -1.790  0.6345E-02  0.5461E-01
     -1.723  0.7038E-02  0.5506E-01
     -1.655  0.7820E-02  0.5556E-01
     -1.588  0.8663E-02  0.5611E-01
     -1.520  0.9568E-02  0.5673E-01
     -1.453  0.1053E-01  0.5741E-01
     -1.385  0.1156E-01  0.5815E-01
     -1.318  0.1392E-01  0.5900E-01
     -1.250  0.1517E-01  0.5998E-01
     -1.183  0.1667E-01  0.6105E-01
     -1.115  0.2649E-01  0.6256E-01
     -1.048  0.5675E-01  0.6524E-01
     -0.980  0.3312E-01  0.6850E-01
     -0.913  0.3665E-01  0.7086E-01
     -0.845  0.2939E-01  0.7301E-01
     -0.778  0.2565E-01  0.7487E-01
     -0.710  0.2232E-01  0.7648E-01
     -0.643  0.1848E-01  0.7790E-01
     -0.576  0.2025E-01  0.7918E-01
     -0.508  0.1576E-01  0.8052E-01
     -0.441  0.1343E-01  0.8153E-01
     -0.373  0.1332E-01  0.8243E-01
     -0.306  0.1321E-01  0.8332E-01
     -0.238  0.1310E-01  0.8421E-01
     -0.171  0.1299E-01  0.8509E-01
     -0.103  0.1289E-01  0.8597E-01
     -0.036  0.1279E-01  0.8683E-01
      0.032  0.1269E-01  0.8769E-01
      0.099  0.1260E-01  0.8855E-01
      0.167  0.1033E-01  0.8930E-01
      0.234  0.1022E-01  0.8999E-01
      0.302  0.1009E-01  0.9068E-01
      0.369  0.9913E-02  0.9135E-01
      0.437  0.9807E-02  0.9202E-01
      0.504  0.9630E-02  0.9267E-01
      0.572  0.9443E-02  0.9332E-01
      0.639  0.9245E-02  0.9395E-01
      0.707  0.9036E-02  0.9457E-01
      0.774  0.8817E-02  0.9517E-01
      0.841  0.8587E-02  0.9576E-01
      0.909  0.8775E-02  0.9635E-01
      0.976  0.8353E-02  0.9693E-01
      1.044  0.8013E-02  0.9748E-01
      1.111  0.7755E-02  0.9801E-01
      1.179  0.6882E-02  0.9852E-01
      1.246  0.8007E-02  0.9901E-01
      1.314  0.9859E-02  0.9961E-01
      1.381  0.2321E-01  0.1004E+00
      1.449  0.1297E-01  0.1016E+00
      1.516  0.1350E-01  0.1024E+00
      1.584  0.1472E-01  0.1034E+00
      1.651  0.1656E-01  0.1045E+00
      1.719  0.1815E-01  0.1056E+00
      1.786  0.2721E-01  0.1074E+00
      1.854  0.3056E-01  0.1093E+00
      1.921  0.3169E-01  0.1114E+00
      1.989  0.3581E-01  0.1137E+00
      2.056  0.3957E-01  0.1163E+00
      2.124  0.3964E-01  0.1189E+00
      2.191  0.3908E-01  0.1216E+00
      2.258  0.3262E-01  0.1242E+00
      2.326  0.2999E-01  0.1263E+00
      2.393  0.2813E-01  0.1282E+00
      2.461  0.3045E-01  0.1305E+00
      2.528  0.2392E-01  0.1321E+00
      2.596  0.2477E-01  0.1338E+00
      2.663  0.2673E-01  0.1355E+00
      2.731  0.3503E-01  0.1376E+00
      2.798  0.3628E-01  0.1400E+00
      2.866  0.4921E-01  0.1429E+00
      2.933  0.4849E-01  0.1465E+00
      3.001  0.5130E-01  0.1497E+00
      3.068  0.5130E-01  0.1532E+00
      3.136  0.4385E-01  0.1564E+00
      3.203  0.3422E-01  0.1591E+00
      3.271  0.2651E-01  0.1611E+00
      3.338  0.2354E-01  0.1627E+00
      3.406  0.2295E-01  0.1643E+00
      3.473  0.2821E-01  0.1660E+00
      3.541  0.3694E-01  0.1681E+00
      3.608  0.4691E-01  0.1712E+00
      3.675  0.3817E-01  0.1743E+00
      3.743  0.3896E-01  0.1769E+00
      3.810  0.3950E-01  0.1796E+00
      3.878  0.5700E-01  0.1827E+00
      3.945  0.4515E-01  0.1862E+00
      4.013  0.3381E-01  0.1887E+00
      4.080  0.2989E-01  0.1908E+00
      4.148  0.2592E-01  0.1927E+00
      4.215  0.1674E-01  0.1945E+00
      4.283  0.1527E-01  0.1956E+00
      4.350  0.1447E-01  0.1966E+00
      4.418  0.1934E-01  0.1977E+00
      4.485  0.2476E-01  0.1992E+00
      4.553  0.3157E-01  0.2014E+00
      4.620  0.3533E-01  0.2036E+00
      4.688  0.3521E-01  0.2060E+00
      4.755  0.2856E-01  0.2083E+00
      4.823  0.1097E-01  0.2095E+00
      4.890  0.9426E-02  0.2102E+00
      4.957  0.7988E-02  0.2107E+00
      5.025  0.6652E-02  0.2112E+00
      5.092  0.6413E-02  0.2117E+00
      5.160  0.6337E-02  0.2121E+00
      5.227  0.5764E-02  0.2125E+00
      5.295  0.4693E-02  0.2129E+00
      5.362  0.3124E-02  0.2131E+00
      5.430  0.1057E-02  0.2133E+00
      5.497  0.3543E-03  0.2133E+00
      5.565  0.5946E-04  0.2133E+00
      5.632  0.0000E+00  0.2133E+00
      5.700  0.0000E+00  0.2133E+00
      5.767  0.0000E+00  0.2133E+00
      5.835  0.0000E+00  0.2133E+00
      5.902  0.0000E+00  0.2133E+00
      5.970  0.0000E+00  0.2133E+00
      6.037  0.0000E+00  0.2133E+00
      6.105  0.0000E+00  0.2133E+00
      6.172  0.0000E+00  0.2133E+00
      6.240  0.2528E-03  0.2133E+00
      6.307  0.1690E-02  0.2134E+00
      6.374  0.2439E-02  0.2135E+00
      6.442  0.3048E-02  0.2137E+00
      6.509  0.3844E-02  0.2140E+00
      6.577  0.4747E-02  0.2143E+00
      6.644  0.5484E-02  0.2146E+00
      6.712  0.6010E-02  0.2150E+00
      6.779  0.6702E-02  0.2154E+00
      6.847  0.7717E-02  0.2159E+00
      6.914  0.9610E-02  0.2165E+00
      6.982  0.1476E-01  0.2173E+00
      7.049  0.1887E-01  0.2184E+00
      7.117  0.1883E-01  0.2197E+00
      7.184  0.2245E-01  0.2213E+00
      7.252  0.2263E-01  0.2228E+00
      7.319  0.2524E-01  0.2244E+00
      7.387  0.2779E-01  0.2262E+00
      7.454  0.4145E-01  0.2292E+00
      7.522  0.3787E-01  0.2319E+00
      7.589  0.3559E-01  0.2345E+00
      7.657  0.2877E-01  0.2367E+00
      7.724  0.2402E-01  0.2384E+00
      7.791  0.3227E-01  0.2402E+00
      7.859  0.4091E-01  0.2427E+00
      7.926  0.5088E-01  0.2458E+00
      7.994  0.5245E-01  0.2504E+00
      8.061  0.3879E-01  0.2534E+00
      8.129  0.3796E-01  0.2560E+00
      8.196  0.3663E-01  0.2585E+00
      8.264  0.3487E-01  0.2609E+00
      8.331  0.3269E-01  0.2632E+00
      8.399  0.2654E-01  0.2651E+00
      8.466  0.2388E-01  0.2668E+00
      8.534  0.2337E-01  0.2684E+00
      8.601  0.2304E-01  0.2700E+00
      8.669  0.2291E-01  0.2715E+00
      8.736  0.2059E-01  0.2730E+00
      8.804  0.1805E-01  0.2743E+00
      8.871  0.1910E-01  0.2755E+00
      8.939  0.7596E-01  0.2814E+00
      9.006  0.6828E-01  0.2864E+00
      9.074  0.4545E-01  0.2898E+00
      9.141  0.4651E-01  0.2929E+00
      9.208  0.4808E-01  0.2961E+00
      9.276  0.4522E-01  0.2993E+00
      9.343  0.4285E-01  0.3022E+00
      9.411  0.4154E-01  0.3051E+00
      9.478  0.3808E-01  0.3078E+00
      9.546  0.3422E-01  0.3102E+00
      9.613  0.2733E-01  0.3123E+00
      9.681  0.2188E-01  0.3140E+00
      9.748  0.1913E-01  0.3154E+00
      9.816  0.1647E-01  0.3166E+00
      9.883  0.1335E-01  0.3176E+00
      9.951  0.1929E-01  0.3187E+00
     10.018  0.1197E-01  0.3198E+00
     10.086  0.0000E+00  0.3200E+00
     10.153  0.0000E+00  0.3200E+00
     10.221  0.0000E+00  0.3200E+00
     10.288  0.0000E+00  0.3200E+00
     10.356  0.0000E+00  0.3200E+00
     10.423  0.0000E+00  0.3200E+00
     10.491  0.0000E+00  0.3200E+00
     10.558  0.0000E+00  0.3200E+00
     10.625  0.0000E+00  0.3200E+00
     10.693  0.0000E+00  0.3200E+00
     10.760  0.0000E+00  0.3200E+00
     10.828  0.0000E+00  0.3200E+00
     10.895  0.0000E+00  0.3200E+00
     10.963  0.0000E+00  0.3200E+00
     11.030  0.0000E+00  0.3200E+00
     11.098  0.0000E+00  0.3200E+00
     11.165  0.0000E+00  0.3200E+00
     11.233  0.0000E+00  0.3200E+00
     11.300  0.0000E+00  0.3200E+00
     11.368  0.0000E+00  0.3200E+00
     11.435  0.0000E+00  0.3200E+00
     11.503  0.0000E+00  0.3200E+00
     11.570  0.0000E+00  0.3200E+00
     11.638  0.0000E+00  0.3200E+00
     11.705  0.0000E+00  0.3200E+00
     11.773  0.0000E+00  0.3200E+00
     11.840  0.0000E+00  0.3200E+00
     11.908  0.0000E+00  0.3200E+00
     11.975  0.0000E+00  0.3200E+00
     12.042  0.0000E+00  0.3200E+00
