 running on   24 total cores
 distrk:  each k-point on   24 cores,    1 groups
 distr:  one band on    6 cores,    4 groups
 using from now: INCAR     
 vasp.5.4.1 24Jun15 (build Nov 23 2015 09:58:10) complex                        
  
 POSCAR found type information on POSCAR  Si
 POSCAR found :  1 types and       8 ions
 scaLAPACK will be used

 ----------------------------------------------------------------------------- 
|                                                                             |
|  ADVICE TO THIS USER RUNNING 'VASP/VAMP'   (HEAR YOUR MASTER'S VOICE ...):  |
|                                                                             |
|      You have a (more or less) 'small supercell' and for smaller cells      |
|      it is recommended  to use the reciprocal-space projection scheme!      |
|      The real space optimization is not  efficient for small cells and it   |
|      is also less accurate ...                                              |
|      Therefore set LREAL=.FALSE. in the  INCAR file                         |
|                                                                             |
 ----------------------------------------------------------------------------- 

 LDA part: xc-table for Pade appr. of Perdew
 POSCAR, INCAR and KPOINTS ok, starting setup
 FFT: planning ...
 WAVECAR not read
 entering main loop
       N       E                     dE             d eps       ncg     rms          rms(c)
DAV:   1     0.692263312429E+02    0.69226E+02   -0.11909E+04   480   0.108E+03
DAV:   2    -0.389711051287E+02   -0.10820E+03   -0.99507E+02   632   0.154E+02
DAV:   3    -0.439671824635E+02   -0.49961E+01   -0.48557E+01   632   0.309E+01
DAV:   4    -0.440687461821E+02   -0.10156E+00   -0.10137E+00   584   0.515E+00
DAV:   5    -0.440709240052E+02   -0.21778E-02   -0.21772E-02   624   0.735E-01    0.950E+00
RMM:   6    -0.436077087249E+02    0.46322E+00   -0.23711E-01   480   0.185E+00    0.581E+00
RMM:   7    -0.433944312654E+02    0.21328E+00   -0.53885E-01   480   0.288E+00    0.315E-01
RMM:   8    -0.433978381003E+02   -0.34068E-02   -0.11777E-02   484   0.484E-01    0.150E-01
RMM:   9    -0.433986798655E+02   -0.84177E-03   -0.14370E-03   484   0.185E-01    0.996E-02
RMM:  10    -0.433988234213E+02   -0.14356E-03   -0.27538E-04   486   0.832E-02    0.125E-02
RMM:  11    -0.433988227950E+02    0.62625E-06   -0.26285E-05   351   0.257E-02
   1 F= -.43398823E+02 E0= -.43398823E+02  d E =-.433988E+02
 curvature:   0.00 expect dE= 0.000E+00 dE for cont linesearch  0.000E+00
 trial: gam= 0.00000 g(F)=  0.296E-59 g(S)=  0.130E-05 ort = 0.000E+00 (trialstep = 0.100E+01)
 search vector abs. value=  0.131E-05
 reached required accuracy - stopping structural energy minimisation
