<?xml version="1.0" encoding="ISO-8859-1"?>
<modeling>
 <generator>
  <i name="program" type="string">vasp </i>
  <i name="version" type="string">5.4.1  </i>
  <i name="subversion" type="string">24Jun15 (build Nov 23 2015 09:58:10) complex                          parallel </i>
  <i name="platform" type="string">LinuxIFC </i>
  <i name="date" type="string">2019 12 30 </i>
  <i name="time" type="string">11:39:15 </i>
 </generator>
 <incar>
  <i type="int" name="ISTART">     0</i>
  <i type="string" name="PREC">accurate</i>
  <i type="string" name="ALGO"> Fast</i>
  <i type="logical" name="ADDGRID"> T  </i>
  <i type="int" name="INIWAV">     1</i>
  <i type="int" name="NELM">    60</i>
  <i type="int" name="NELMIN">     6</i>
  <i type="int" name="IBRION">     2</i>
  <i name="EDIFF">      0.00001000</i>
  <i name="EDIFFG">     -0.01500000</i>
  <i type="int" name="NSW">   150</i>
  <i type="int" name="ISIF">     3</i>
  <i type="int" name="NBLOCK">     1</i>
  <i name="ENCUT">    520.00000000</i>
  <i name="POTIM">      0.20000000</i>
  <i type="string" name="LREAL"> Auto</i>
  <i type="int" name="ISMEAR">    -5</i>
  <i type="logical" name="LWAVE"> F  </i>
  <i type="logical" name="LCHARG"> F  </i>
  <v type="int" name="KPOINT_BSE">    -1     0     0     0</v>
  <i type="int" name="NELM">    60</i>
 </incar>
 <kpoints>
  <generation param="Monkhorst-Pack">
   <v type="int" name="divisions">       5        5        5 </v>
   <v name="usershift">      0.00000000       0.00000000       0.00000000 </v>
   <v name="genvec1">      0.20000000       0.00000000       0.00000000 </v>
   <v name="genvec2">      0.00000000       0.20000000       0.00000000 </v>
   <v name="genvec3">      0.00000000       0.00000000       0.20000000 </v>
   <v name="shift">      0.00000000       0.00000000       0.00000000 </v>
  </generation>
  <varray name="kpointlist" >
   <v>       0.00000000       0.00000000       0.00000000 </v>
   <v>       0.20000000       0.00000000       0.00000000 </v>
   <v>       0.40000000       0.00000000       0.00000000 </v>
   <v>       0.20000000       0.20000000       0.00000000 </v>
   <v>       0.40000000       0.20000000       0.00000000 </v>
   <v>       0.40000000       0.40000000       0.00000000 </v>
   <v>       0.20000000       0.20000000       0.20000000 </v>
   <v>       0.40000000       0.20000000       0.20000000 </v>
   <v>       0.40000000       0.40000000       0.20000000 </v>
   <v>       0.40000000       0.40000000       0.40000000 </v>
  </varray>
  <varray name="weights" >
   <v>       0.00800000 </v>
   <v>       0.04800000 </v>
   <v>       0.04800000 </v>
   <v>       0.09600000 </v>
   <v>       0.19200000 </v>
   <v>       0.09600000 </v>
   <v>       0.06400000 </v>
   <v>       0.19200000 </v>
   <v>       0.19200000 </v>
   <v>       0.06400000 </v>
  </varray>
  <varray name="tetrahedronlist"  type="int" >
   <v type="int" >       12        1        2        2        4 </v>
   <v type="int" >       12        2        2        4        4 </v>
   <v type="int" >       12        2        4        4        7 </v>
   <v type="int" >       12        2        3        4        5 </v>
   <v type="int" >       12        2        4        4        5 </v>
   <v type="int" >       12        4        4        5        7 </v>
   <v type="int" >       12        3        4        5        5 </v>
   <v type="int" >       24        4        5        5        8 </v>
   <v type="int" >       24        4        5        7        8 </v>
   <v type="int" >        6        3        3        5        5 </v>
   <v type="int" >       12        3        5        5        5 </v>
   <v type="int" >       12        5        5        5        8 </v>
   <v type="int" >        6        5        5        8        8 </v>
   <v type="int" >       12        4        5        6        7 </v>
   <v type="int" >       12        5        6        7        8 </v>
   <v type="int" >       12        6        7        8        9 </v>
   <v type="int" >       24        5        5        6        8 </v>
   <v type="int" >       12        5        6        6        8 </v>
   <v type="int" >       12        6        6        8        9 </v>
   <v type="int" >       12        5        6        8        8 </v>
   <v type="int" >       12        6        8        8        9 </v>
   <v type="int" >       12        6        8        9        9 </v>
   <v type="int" >       12        5        6        8        9 </v>
   <v type="int" >       12        5        7        8        8 </v>
   <v type="int" >       24        5        8        8        9 </v>
   <v type="int" >       12        2        3        4        7 </v>
   <v type="int" >       12        3        4        5        7 </v>
   <v type="int" >       12        3        5        7        8 </v>
   <v type="int" >       12        6        6        6        9 </v>
   <v type="int" >       12        6        6        9        9 </v>
   <v type="int" >       12        6        9        9        9 </v>
   <v type="int" >       12        5        5        6        9 </v>
   <v type="int" >       12        5        6        6        9 </v>
   <v type="int" >       12        5        6        9        9 </v>
   <v type="int" >       12        5        5        8        9 </v>
   <v type="int" >       12        5        8        9        9 </v>
   <v type="int" >       12        3        3        5        8 </v>
   <v type="int" >       12        3        5        5        8 </v>
   <v type="int" >       12        3        5        8        8 </v>
   <v type="int" >       12        4        5        6        9 </v>
   <v type="int" >       12        4        5        8        9 </v>
   <v type="int" >       12        4        7        8        9 </v>
   <v type="int" >       12        2        3        5        8 </v>
   <v type="int" >       12        2        4        5        8 </v>
   <v type="int" >       12        2        4        7        8 </v>
   <v type="int" >       12        1        2        4        7 </v>
   <v type="int" >       12        7        8        8        9 </v>
   <v type="int" >       18        8        8        9        9 </v>
   <v type="int" >       24        8        9        9       10 </v>
   <v type="int" >       12        8        9        9        9 </v>
   <v type="int" >       24        9        9        9       10 </v>
   <v type="int" >       18        9        9       10       10 </v>
   <v type="int" >       12        9       10       10       10 </v>
   <v type="int" >       12        8        8        9       10 </v>
   <v type="int" >       12        8        9       10       10 </v>
   <v type="int" >       12        7        8        9       10 </v>
   <v type="int" >        6       10       10       10       10 </v>
  </varray>
  <i name="volumeweight">      0.00133333 </i>
 </kpoints>
 <parameters>
  <separator name="general" >
   <i type="string" name="SYSTEM">unknown system</i>
   <i type="logical" name="LCOMPAT"> F  </i>
  </separator>
  <separator name="electronic" >
   <i type="string" name="PREC">accura</i>
   <i name="ENMAX">    520.00000000</i>
   <i name="ENAUG">    322.06900000</i>
   <i name="EDIFF">      0.00001000</i>
   <i type="int" name="IALGO">    68</i>
   <i type="int" name="IWAVPR">    11</i>
   <i type="int" name="NBANDS">    24</i>
   <i name="NELECT">     32.00000000</i>
   <i type="int" name="TURBO">     0</i>
   <i type="int" name="IRESTART">     0</i>
   <i type="int" name="NREBOOT">     0</i>
   <i type="int" name="NMIN">     0</i>
   <i name="EREF">      0.00000000</i>
   <separator name="electronic smearing" >
    <i type="int" name="ISMEAR">    -5</i>
    <i name="SIGMA">      0.20000000</i>
    <i name="KSPACING">      0.50000000</i>
    <i type="logical" name="KGAMMA"> T  </i>
   </separator>
   <separator name="electronic projectors" >
    <i type="logical" name="LREAL"> T  </i>
    <v name="ROPT">     -0.00025000</v>
    <i type="int" name="LMAXPAW">  -100</i>
    <i type="int" name="LMAXMIX">     2</i>
    <i type="logical" name="NLSPLINE"> F  </i>
   </separator>
   <separator name="electronic startup" >
    <i type="int" name="ISTART">     0</i>
    <i type="int" name="ICHARG">     2</i>
    <i type="int" name="INIWAV">     1</i>
   </separator>
   <separator name="electronic spin" >
    <i type="int" name="ISPIN">     1</i>
    <i type="logical" name="LNONCOLLINEAR"> F  </i>
    <v name="MAGMOM">      1.00000000      1.00000000      1.00000000      1.00000000      1.00000000      1.00000000      1.00000000      1.00000000</v>
    <i name="NUPDOWN">     -1.00000000</i>
    <i type="logical" name="LSORBIT"> F  </i>
    <v name="SAXIS">      0.00000000      0.00000000      1.00000000</v>
    <i type="logical" name="LSPIRAL"> F  </i>
    <v name="QSPIRAL">      0.00000000      0.00000000      0.00000000</v>
    <i type="logical" name="LZEROZ"> F  </i>
   </separator>
   <separator name="electronic exchange-correlation" >
    <i type="logical" name="LASPH"> F  </i>
    <i type="logical" name="LMETAGGA"> F  </i>
   </separator>
   <separator name="electronic convergence" >
    <i type="int" name="NELM">    60</i>
    <i type="int" name="NELMDL">    -5</i>
    <i type="int" name="NELMIN">     6</i>
    <i name="ENINI">    520.00000000</i>
    <separator name="electronic convergence detail" >
     <i type="logical" name="LDIAG"> T  </i>
     <i type="logical" name="LSUBROT"> F  </i>
     <i name="WEIMIN">      0.00100000</i>
     <i name="EBREAK">      0.00000010</i>
     <i name="DEPER">      0.30000000</i>
     <i type="int" name="NRMM">     4</i>
     <i name="TIME">      0.40000000</i>
    </separator>
   </separator>
   <separator name="electronic mixer" >
    <i name="AMIX">      0.40000000</i>
    <i name="BMIX">      1.00000000</i>
    <i name="AMIN">      0.10000000</i>
    <i name="AMIX_MAG">      1.60000000</i>
    <i name="BMIX_MAG">      1.00000000</i>
    <separator name="electronic mixer details" >
     <i type="int" name="IMIX">     4</i>
     <i type="logical" name="MIXFIRST"> F  </i>
     <i type="int" name="MAXMIX">   -45</i>
     <i name="WC">    100.00000000</i>
     <i type="int" name="INIMIX">     1</i>
     <i type="int" name="MIXPRE">     1</i>
     <i type="int" name="MREMOVE">     5</i>
    </separator>
   </separator>
   <separator name="electronic dipolcorrection" >
    <i type="logical" name="LDIPOL"> F  </i>
    <i type="logical" name="LMONO"> F  </i>
    <i type="int" name="IDIPOL">     0</i>
    <i name="EPSILON">      1.00000000</i>
    <v name="DIPOL">   -100.00000000   -100.00000000   -100.00000000</v>
    <i name="EFIELD">      0.00000000</i>
   </separator>
  </separator>
  <separator name="grids" >
   <i type="int" name="NGX">    42</i>
   <i type="int" name="NGY">    42</i>
   <i type="int" name="NGZ">    42</i>
   <i type="int" name="NGXF">    84</i>
   <i type="int" name="NGYF">    84</i>
   <i type="int" name="NGZF">    84</i>
   <i type="logical" name="ADDGRID"> T  </i>
  </separator>
  <separator name="ionic" >
   <i type="int" name="NSW">   150</i>
   <i type="int" name="IBRION">     2</i>
   <i type="int" name="ISIF">     3</i>
   <i name="PSTRESS">      0.00000000</i>
   <i name="EDIFFG">     -0.01500000</i>
   <i type="int" name="NFREE">     1</i>
   <i name="POTIM">      0.20000000</i>
   <i name="SMASS">     -3.00000000</i>
   <i name="SCALEE">      1.00000000</i>
  </separator>
  <separator name="ionic md" >
   <i name="TEBEG">      0.00010000</i>
   <i name="TEEND">      0.00010000</i>
   <i type="int" name="NBLOCK">     1</i>
   <i type="int" name="KBLOCK">   150</i>
   <i type="int" name="NPACO">   256</i>
   <i name="APACO">     16.00000000</i>
  </separator>
  <separator name="symmetry" >
   <i type="int" name="ISYM">     2</i>
   <i name="SYMPREC">      0.00001000</i>
  </separator>
  <separator name="dos" >
   <i type="logical" name="LORBIT"> F  </i>
   <v name="RWIGS">     -1.00000000</v>
   <i type="int" name="NEDOS">   301</i>
   <i name="EMIN">     10.00000000</i>
   <i name="EMAX">    -10.00000000</i>
   <i name="EFERMI">      0.00000000</i>
  </separator>
  <separator name="writing" >
   <i type="int" name="NWRITE">     2</i>
   <i type="logical" name="LWAVE"> F  </i>
   <i type="logical" name="LCHARG"> F  </i>
   <i type="logical" name="LPARD"> F  </i>
   <i type="logical" name="LVTOT"> F  </i>
   <i type="logical" name="LVHAR"> F  </i>
   <i type="logical" name="LELF"> F  </i>
   <i type="logical" name="LOPTICS"> F  </i>
   <v name="STM">      0.00000000      0.00000000      0.00000000      0.00000000      0.00000000      0.00000000      0.00000000</v>
  </separator>
  <separator name="performance" >
   <i type="int" name="NPAR">     4</i>
   <i type="int" name="NSIM">     4</i>
   <i type="int" name="NBLK">    -1</i>
   <i type="logical" name="LPLANE"> T  </i>
   <i type="logical" name="LSCALAPACK"> T  </i>
   <i type="logical" name="LSCAAWARE"> F  </i>
   <i type="logical" name="LSCALU"> F  </i>
   <i type="logical" name="LASYNC"> F  </i>
   <i type="logical" name="LORBITALREAL"> F  </i>
  </separator>
  <separator name="miscellaneous" >
   <i type="int" name="IDIOT">     3</i>
   <i type="logical" name="LMUSIC"> F  </i>
   <v name="POMASS">     28.08500000</v>
   <v name="DARWINR">      0.00000000</v>
   <v name="DARWINV">      1.00000000</v>
   <i type="logical" name="LCORR"> T  </i>
  </separator>
  <i type="logical" name="GGA_COMPAT"> T  </i>
  <i type="logical" name="LBERRY"> F  </i>
  <i type="int" name="ICORELEVEL">     0</i>
  <i type="logical" name="LDAU"> F  </i>
  <i type="int" name="I_CONSTRAINED_M">     0</i>
  <separator name="electronic exchange-correlation" >
   <i type="string" name="GGA">--</i>
   <i type="int" name="VOSKOWN">     0</i>
   <i type="logical" name="LHFCALC"> F  </i>
   <i type="string" name="PRECFOCK"></i>
   <i type="logical" name="LSYMGRAD"> F  </i>
   <i type="logical" name="LHFONE"> F  </i>
   <i type="logical" name="LRHFCALC"> F  </i>
   <i type="logical" name="LTHOMAS"> F  </i>
   <i type="logical" name="LMODELHF"> F  </i>
   <i name="ENCUT4O">     -1.00000000</i>
   <i type="int" name="EXXOEP">     0</i>
   <i type="int" name="FOURORBIT">     0</i>
   <i name="AEXX">      0.00000000</i>
   <i name="HFALPHA">      0.00000000</i>
   <i name="MCALPHA">      0.00000000</i>
   <i name="ALDAX">      1.00000000</i>
   <i name="AGGAX">      1.00000000</i>
   <i name="ALDAC">      1.00000000</i>
   <i name="AGGAC">      1.00000000</i>
   <i type="int" name="NKREDX">     1</i>
   <i type="int" name="NKREDY">     1</i>
   <i type="int" name="NKREDZ">     1</i>
   <i type="logical" name="SHIFTRED"> F  </i>
   <i type="logical" name="ODDONLY"> F  </i>
   <i type="logical" name="EVENONLY"> F  </i>
   <i type="int" name="LMAXFOCK">     0</i>
   <i type="int" name="NMAXFOCKAE">     0</i>
   <i type="logical" name="LFOCKAEDFT"> F  </i>
   <i name="HFSCREEN">      0.00000000</i>
   <i name="HFSCREENC">      0.00000000</i>
   <i type="int" name="NBANDSGWLOW">     0</i>
  </separator>
  <separator name="vdW DFT" >
   <i type="logical" name="LUSE_VDW"> F  </i>
   <i name="Zab_VDW">     -0.84910000</i>
   <i name="PARAM1">      0.12340000</i>
   <i name="PARAM2">      1.00000000</i>
   <i name="PARAM3">      0.00000000</i>
  </separator>
  <separator name="model GW" >
   <i type="int" name="MODEL_GW">     0</i>
   <i name="MODEL_EPS0">     12.27198633</i>
   <i name="MODEL_ALPHA">      1.00000000</i>
  </separator>
  <separator name="linear response parameters" >
   <i type="logical" name="LEPSILON"> F  </i>
   <i type="logical" name="LRPA"> F  </i>
   <i type="logical" name="LNABLA"> F  </i>
   <i type="logical" name="LVEL"> F  </i>
   <i type="int" name="KINTER">     0</i>
   <i name="CSHIFT">      0.10000000</i>
   <i name="OMEGAMAX">     -1.00000000</i>
   <i name="DEG_THRESHOLD">      0.00200000</i>
  </separator>
  <separator name="orbital magnetization" >
   <i type="logical" name="NUCIND"> F  </i>
   <v name="MAGPOS">      0.00000000      0.00000000      0.00000000</v>
   <i type="logical" name="LNICSALL"> T  </i>
   <i type="logical" name="ORBITALMAG"> F  </i>
   <i type="logical" name="LMAGBLOCH"> F  </i>
   <i type="logical" name="LCHIMAG"> F  </i>
   <i type="logical" name="LGAUGE"> T  </i>
   <i type="int" name="MAGATOM">     0</i>
   <v name="MAGDIPOL">      0.00000000      0.00000000      0.00000000</v>
   <v name="AVECCONST">      0.00000000      0.00000000      0.00000000</v>
  </separator>
  <separator name="response functions" >
   <i type="logical" name="LADDER"> F  </i>
   <i type="logical" name="LFXC"> F  </i>
   <i type="logical" name="LHARTREE"> T  </i>
   <i type="int" name="IBSE">     0</i>
   <v type="int" name="KPOINT">    -1     0     0     0</v>
   <i type="logical" name="LTCTE"> F  </i>
   <i type="logical" name="LTETE"> F  </i>
   <i type="logical" name="LTRIPLET"> F  </i>
   <i type="logical" name="LFXCEPS"> F  </i>
   <i type="logical" name="LFXHEG"> F  </i>
   <i type="int" name="NATURALO">     0</i>
   <i type="logical" name="L2ORDER"> F  </i>
   <i type="logical" name="LUSEW"> F  </i>
   <i name="ENCUTGW">     -2.00000000</i>
   <i name="ENCUTGWSOFT">     -2.00000000</i>
   <i name="ENCUTLF">     -1.00000000</i>
   <i type="int" name="LMAXMP2">    -1</i>
   <i name="SCISSOR">      0.00000000</i>
   <i type="int" name="NOMEGA">     0</i>
   <i type="int" name="NOMEGAR">     0</i>
   <i type="int" name="NBANDSGW">    -1</i>
   <i type="int" name="NBANDSO">    -1</i>
   <i type="int" name="NBANDSV">    -1</i>
   <i type="int" name="NELM">    60</i>
   <i type="int" name="NELMHF">     1</i>
   <i type="int" name="DIM">     3</i>
   <i type="int" name="ANTIRES">     0</i>
   <i name="OMEGAMAX">    -30.00000000</i>
   <i name="OMEGAMIN">    -30.00000000</i>
   <i name="OMEGATL">   -200.00000000</i>
   <i type="int" name="OMEGAGRID">     0</i>
   <i name="CSHIFT">     -0.10000000</i>
   <i type="logical" name="SELFENERGY"> F  </i>
   <i type="logical" name="LSPECTRAL"> F  </i>
   <i type="logical" name="LSPECTRALGW"> F  </i>
   <i type="logical" name="LSINGLES"> F  </i>
   <i type="logical" name="LFERMIGW"> F  </i>
   <i type="logical" name="ODDONLYGW"> F  </i>
   <i type="logical" name="EVENONLYGW"> F  </i>
   <i type="int" name="NKREDLFX">     1</i>
   <i type="int" name="NKREDLFY">     1</i>
   <i type="int" name="NKREDLFZ">     1</i>
   <i type="int" name="MAXMEM">  1800</i>
   <i type="int" name="TELESCOPE">     0</i>
   <i type="int" name="TAUPAR">     1</i>
   <i type="int" name="OMEGAPAR">    -1</i>
   <i name="LAMBDA">      1.00000000</i>
  </separator>
  <separator name="External order field" >
   <i name="OFIELD_KAPPA">      0.00000000</i>
   <v name="OFIELD_K">      0.00000000      0.00000000      0.00000000</v>
   <i name="OFIELD_Q6_NEAR">      0.00000000</i>
   <i name="OFIELD_Q6_FAR">      0.00000000</i>
   <i name="OFIELD_A">      0.00000000</i>
  </separator>
 </parameters>
 <atominfo>
  <atoms>       8 </atoms>
  <types>       1 </types>
  <array name="atoms" >
   <dimension dim="1">ion</dimension>
   <field type="string">element</field>
   <field type="int">atomtype</field>
   <set>
    <rc><c>Si</c><c>   1</c></rc>
    <rc><c>Si</c><c>   1</c></rc>
    <rc><c>Si</c><c>   1</c></rc>
    <rc><c>Si</c><c>   1</c></rc>
    <rc><c>Si</c><c>   1</c></rc>
    <rc><c>Si</c><c>   1</c></rc>
    <rc><c>Si</c><c>   1</c></rc>
    <rc><c>Si</c><c>   1</c></rc>
   </set>
  </array>
  <array name="atomtypes" >
   <dimension dim="1">type</dimension>
   <field type="int">atomspertype</field>
   <field type="string">element</field>
   <field>mass</field>
   <field>valence</field>
   <field type="string">pseudopotential</field>
   <set>
    <rc><c>   8</c><c>Si</c><c>     28.08500000</c><c>      4.00000000</c><c>  PAW_PBE Si 05Jan2001                  </c></rc>
   </set>
  </array>
 </atominfo>
 <structure name="initialpos" >
  <crystal>
   <varray name="basis" >
    <v>       5.46954500       0.00000000       0.00000000 </v>
    <v>       0.00000000       5.46954500       0.00000000 </v>
    <v>       0.00000000       0.00000000       5.46954500 </v>
   </varray>
   <i name="volume">    163.62648437 </i>
   <varray name="rec_basis" >
    <v>       0.18283056       0.00000000       0.00000000 </v>
    <v>       0.00000000       0.18283056       0.00000000 </v>
    <v>       0.00000000       0.00000000       0.18283056 </v>
   </varray>
  </crystal>
  <varray name="positions" >
   <v>       0.25000000       0.25000000       0.25000000 </v>
   <v>       0.00000000       0.50000000       0.50000000 </v>
   <v>       0.25000000       0.75000000       0.75000000 </v>
   <v>       0.00000000       0.00000000       0.00000000 </v>
   <v>       0.75000000       0.25000000       0.75000000 </v>
   <v>       0.50000000       0.50000000       0.00000000 </v>
   <v>       0.75000000       0.75000000       0.25000000 </v>
   <v>       0.50000000       0.00000000       0.50000000 </v>
  </varray>
 </structure>
 <calculation>
  <scstep>
   <time name="dav">    0.26    0.50</time>
   <time name="total">    0.35    0.66</time>
   <energy>
    <i name="alphaZ">     13.16681942 </i>
    <i name="ewald">   -907.64404347 </i>
    <i name="hartreedc">    -45.32085545 </i>
    <i name="XCdc">    -74.74767724 </i>
    <i name="pawpsdc">    704.99039692 </i>
    <i name="pawaedc">   -564.24414232 </i>
    <i name="eentropy">      0.00000000 </i>
    <i name="bandstr">    118.49502245 </i>
    <i name="atom">    824.53081094 </i>
    <i name="e_fr_energy">     69.22633124 </i>
    <i name="e_wo_entrp">     69.22633124 </i>
    <i name="e_0_energy">     69.22633124 </i>
   </energy>
  </scstep>
  <scstep>
   <time name="dav">    0.25    0.27</time>
   <time name="total">    0.26    0.29</time>
   <energy>
    <i name="e_fr_energy">    -38.97110513 </i>
    <i name="e_wo_entrp">    -38.97110513 </i>
    <i name="e_0_energy">    -38.97110513 </i>
   </energy>
  </scstep>
  <scstep>
   <time name="dav">    0.23    0.26</time>
   <time name="total">    0.24    0.27</time>
   <energy>
    <i name="e_fr_energy">    -43.96718246 </i>
    <i name="e_wo_entrp">    -43.96718246 </i>
    <i name="e_0_energy">    -43.96718246 </i>
   </energy>
  </scstep>
  <scstep>
   <time name="dav">    0.22    0.22</time>
   <time name="total">    0.22    0.24</time>
   <energy>
    <i name="e_fr_energy">    -44.06874618 </i>
    <i name="e_wo_entrp">    -44.06874618 </i>
    <i name="e_0_energy">    -44.06874618 </i>
   </energy>
  </scstep>
  <scstep>
   <time name="dav">    0.23    0.23</time>
   <time name="total">    0.30    0.38</time>
   <energy>
    <i name="e_fr_energy">    -44.07092401 </i>
    <i name="e_wo_entrp">    -44.07092401 </i>
    <i name="e_0_energy">    -44.07092401 </i>
   </energy>
  </scstep>
  <scstep>
   <time name="diag">    0.04    0.06</time>
   <time name="diis">    0.14    0.15</time>
   <time name="orth">    0.00    0.00</time>
   <time name="total">    0.31    0.36</time>
   <energy>
    <i name="e_fr_energy">    -43.60770872 </i>
    <i name="e_wo_entrp">    -43.60770872 </i>
    <i name="e_0_energy">    -43.60770872 </i>
   </energy>
  </scstep>
  <scstep>
   <time name="diag">    0.04    0.04</time>
   <time name="diis">    0.14    0.14</time>
   <time name="orth">    0.00    0.00</time>
   <time name="total">    0.30    0.32</time>
   <energy>
    <i name="e_fr_energy">    -43.39443127 </i>
    <i name="e_wo_entrp">    -43.39443127 </i>
    <i name="e_0_energy">    -43.39443127 </i>
   </energy>
  </scstep>
  <scstep>
   <time name="diag">    0.04    0.04</time>
   <time name="diis">    0.14    0.14</time>
   <time name="orth">    0.00    0.00</time>
   <time name="total">    0.30    0.32</time>
   <energy>
    <i name="e_fr_energy">    -43.39783810 </i>
    <i name="e_wo_entrp">    -43.39783810 </i>
    <i name="e_0_energy">    -43.39783810 </i>
   </energy>
  </scstep>
  <scstep>
   <time name="diag">    0.04    0.04</time>
   <time name="diis">    0.13    0.13</time>
   <time name="orth">    0.00    0.00</time>
   <time name="total">    0.29    0.31</time>
   <energy>
    <i name="e_fr_energy">    -43.39867987 </i>
    <i name="e_wo_entrp">    -43.39867987 </i>
    <i name="e_0_energy">    -43.39867987 </i>
   </energy>
  </scstep>
  <scstep>
   <time name="diag">    0.04    0.04</time>
   <time name="diis">    0.13    0.13</time>
   <time name="orth">    0.00    0.00</time>
   <time name="total">    0.30    0.31</time>
   <energy>
    <i name="e_fr_energy">    -43.39882342 </i>
    <i name="e_wo_entrp">    -43.39882342 </i>
    <i name="e_0_energy">    -43.39882342 </i>
   </energy>
  </scstep>
  <scstep>
   <time name="diag">    0.04    0.04</time>
   <time name="diis">    0.10    0.10</time>
   <time name="orth">    0.00    0.00</time>
   <time name="total">    0.20    0.21</time>
   <energy>
    <i name="alphaZ">     13.16681942 </i>
    <i name="ewald">   -907.64404347 </i>
    <i name="hartreedc">    -60.71256563 </i>
    <i name="XCdc">    -72.24954830 </i>
    <i name="pawpsdc">   3319.15866807 </i>
    <i name="pawaedc">  -3179.23282736 </i>
    <i name="eentropy">      0.00000000 </i>
    <i name="bandstr">     19.58386354 </i>
    <i name="atom">    824.53081094 </i>
    <i name="e_fr_energy">    -43.39882280 </i>
    <i name="e_wo_entrp">    -43.39882280 </i>
    <i name="e_0_energy">    -43.39882280 </i>
   </energy>
  </scstep>
  <structure>
   <crystal>
    <varray name="basis" >
     <v>       5.46954500       0.00000000       0.00000000 </v>
     <v>       0.00000000       5.46954500       0.00000000 </v>
     <v>       0.00000000       0.00000000       5.46954500 </v>
    </varray>
    <i name="volume">    163.62648437 </i>
    <varray name="rec_basis" >
     <v>       0.18283056       0.00000000       0.00000000 </v>
     <v>       0.00000000       0.18283056       0.00000000 </v>
     <v>       0.00000000       0.00000000       0.18283056 </v>
    </varray>
   </crystal>
   <varray name="positions" >
    <v>       0.25000000       0.25000000       0.25000000 </v>
    <v>       0.00000000       0.50000000       0.50000000 </v>
    <v>       0.25000000       0.75000000       0.75000000 </v>
    <v>       0.00000000       0.00000000       0.00000000 </v>
    <v>       0.75000000       0.25000000       0.75000000 </v>
    <v>       0.50000000       0.50000000       0.00000000 </v>
    <v>       0.75000000       0.75000000       0.25000000 </v>
    <v>       0.50000000       0.00000000       0.50000000 </v>
   </varray>
  </structure>
  <varray name="forces" >
   <v>      -0.00000000      -0.00000000      -0.00000000 </v>
   <v>      -0.00000000       0.00000000       0.00000000 </v>
   <v>       0.00000000       0.00000000      -0.00000000 </v>
   <v>       0.00000000      -0.00000000       0.00000000 </v>
   <v>       0.00000000      -0.00000000      -0.00000000 </v>
   <v>      -0.00000000       0.00000000       0.00000000 </v>
   <v>      -0.00000000      -0.00000000      -0.00000000 </v>
   <v>      -0.00000000      -0.00000000       0.00000000 </v>
  </varray>
  <varray name="stress" >
   <v>       0.13149000      -0.00000000      -0.00000000 </v>
   <v>       0.00000000       0.13149000      -0.00000000 </v>
   <v>      -0.00000000       0.00000000       0.13149000 </v>
  </varray>
  <energy>
   <i name="e_fr_energy">    -43.39882280 </i>
   <i name="e_wo_entrp">    -43.39882280 </i>
   <i name="e_0_energy">      0.00000000 </i>
  </energy>
  <time name="totalsc">    4.19    4.87</time>
  <eigenvalues>
   <array>
    <dimension dim="1">band</dimension>
    <dimension dim="2">kpoint</dimension>
    <dimension dim="3">spin</dimension>
    <field>eigene</field>
    <field>occ</field>
    <set>
     <set comment="spin 1">
      <set comment="kpoint 1">
       <r>   -6.2003    1.0000 </r>
       <r>   -2.1333    1.0000 </r>
       <r>   -2.1333    1.0000 </r>
       <r>   -2.1333    1.0000 </r>
       <r>   -2.1333    1.0000 </r>
       <r>   -2.1333    1.0000 </r>
       <r>   -2.1333    1.0000 </r>
       <r>    2.8188    1.0000 </r>
       <r>    2.8188    1.0000 </r>
       <r>    2.8188    1.0000 </r>
       <r>    2.8188    1.0000 </r>
       <r>    2.8188    1.0000 </r>
       <r>    2.8188    1.0000 </r>
       <r>    5.6116    1.0000 </r>
       <r>    5.6116    1.0000 </r>
       <r>    5.6116    1.0000 </r>
       <r>    6.3641    0.0000 </r>
       <r>    6.3641    0.0000 </r>
       <r>    6.3641    0.0000 </r>
       <r>    6.3641    0.0000 </r>
       <r>    6.3641    0.0000 </r>
       <r>    6.3641    0.0000 </r>
       <r>    8.1684    0.0000 </r>
       <r>    8.1684    0.0000 </r>
      </set>
      <set comment="kpoint 2">
       <r>   -6.0286    1.0000 </r>
       <r>   -3.5382    1.0000 </r>
       <r>   -2.0831    1.0000 </r>
       <r>   -2.0831    1.0000 </r>
       <r>   -2.0831    1.0000 </r>
       <r>   -2.0831    1.0000 </r>
       <r>   -0.5248    1.0000 </r>
       <r>    2.4239    1.0000 </r>
       <r>    2.4239    1.0000 </r>
       <r>    2.4239    1.0000 </r>
       <r>    2.4239    1.0000 </r>
       <r>    2.9736    1.0000 </r>
       <r>    2.9736    1.0000 </r>
       <r>    4.6555    1.0000 </r>
       <r>    5.0505    1.0000 </r>
       <r>    5.0505    1.0000 </r>
       <r>    6.2302    0.0000 </r>
       <r>    6.9619    0.0000 </r>
       <r>    7.1983    0.0000 </r>
       <r>    7.1983    0.0000 </r>
       <r>    7.1983    0.0000 </r>
       <r>    7.1983    0.0000 </r>
       <r>    7.7968    0.0000 </r>
       <r>    8.9404    0.0000 </r>
      </set>
      <set comment="kpoint 3">
       <r>   -5.5175    1.0000 </r>
       <r>   -4.6794    1.0000 </r>
       <r>   -1.9950    1.0000 </r>
       <r>   -1.9950    1.0000 </r>
       <r>   -1.9950    1.0000 </r>
       <r>   -1.9950    1.0000 </r>
       <r>    1.2076    1.0000 </r>
       <r>    1.9274    1.0000 </r>
       <r>    1.9274    1.0000 </r>
       <r>    1.9274    1.0000 </r>
       <r>    1.9274    1.0000 </r>
       <r>    2.9766    1.0000 </r>
       <r>    3.4304    1.0000 </r>
       <r>    3.4304    1.0000 </r>
       <r>    4.1580    1.0000 </r>
       <r>    4.1580    1.0000 </r>
       <r>    6.5017    0.0000 </r>
       <r>    7.0882    0.0000 </r>
       <r>    8.0484    0.0000 </r>
       <r>    9.0370    0.0000 </r>
       <r>    9.0370    0.0000 </r>
       <r>    9.0370    0.0000 </r>
       <r>    9.0370    0.0000 </r>
       <r>    9.4639    0.0000 </r>
      </set>
      <set comment="kpoint 4">
       <r>   -5.8592    1.0000 </r>
       <r>   -3.4234    1.0000 </r>
       <r>   -3.4234    1.0000 </r>
       <r>   -2.3635    1.0000 </r>
       <r>   -1.7603    1.0000 </r>
       <r>   -0.6101    1.0000 </r>
       <r>   -0.6101    1.0000 </r>
       <r>    1.6445    1.0000 </r>
       <r>    2.4648    1.0000 </r>
       <r>    2.4648    1.0000 </r>
       <r>    2.7858    1.0000 </r>
       <r>    2.7858    1.0000 </r>
       <r>    3.0894    1.0000 </r>
       <r>    3.5847    1.0000 </r>
       <r>    4.4812    1.0000 </r>
       <r>    5.4363    1.0000 </r>
       <r>    6.6761    0.0000 </r>
       <r>    7.1152    0.0000 </r>
       <r>    7.1152    0.0000 </r>
       <r>    7.7085    0.0000 </r>
       <r>    7.7086    0.0000 </r>
       <r>    8.5218    0.0000 </r>
       <r>    8.5302    0.0000 </r>
       <r>    8.7138    0.0000 </r>
      </set>
      <set comment="kpoint 5">
       <r>   -5.3555    1.0000 </r>
       <r>   -4.5331    1.0000 </r>
       <r>   -3.1121    1.0000 </r>
       <r>   -2.7117    1.0000 </r>
       <r>   -1.3410    1.0000 </r>
       <r>   -0.9019    1.0000 </r>
       <r>    0.8618    1.0000 </r>
       <r>    1.3785    1.0000 </r>
       <r>    1.7246    1.0000 </r>
       <r>    2.2502    1.0000 </r>
       <r>    2.6912    1.0000 </r>
       <r>    2.8672    1.0000 </r>
       <r>    2.9601    1.0000 </r>
       <r>    3.5717    1.0000 </r>
       <r>    3.5798    1.0000 </r>
       <r>    4.6566    1.0000 </r>
       <r>    7.3985    0.0000 </r>
       <r>    7.7866    0.0000 </r>
       <r>    7.9566    0.0000 </r>
       <r>    8.6783    0.0000 </r>
       <r>    8.9940    0.0000 </r>
       <r>    9.2591    0.0000 </r>
       <r>    9.3925    0.0000 </r>
       <r>   10.0425    0.0000 </r>
      </set>
      <set comment="kpoint 6">
       <r>   -4.8772    1.0000 </r>
       <r>   -4.1098    1.0000 </r>
       <r>   -4.1098    1.0000 </r>
       <r>   -3.4646    1.0000 </r>
       <r>   -0.6501    1.0000 </r>
       <r>    0.1233    1.0000 </r>
       <r>    0.1233    1.0000 </r>
       <r>    1.1656    1.0000 </r>
       <r>    1.4453    1.0000 </r>
       <r>    2.0103    1.0000 </r>
       <r>    2.0103    1.0000 </r>
       <r>    2.6797    1.0000 </r>
       <r>    3.8332    1.0000 </r>
       <r>    3.8610    1.0000 </r>
       <r>    3.8610    1.0000 </r>
       <r>    4.7809    1.0000 </r>
       <r>    7.5304    0.0000 </r>
       <r>    8.4616    0.0000 </r>
       <r>    8.7706    0.0000 </r>
       <r>    8.7706    0.0000 </r>
       <r>    9.2491    0.0000 </r>
       <r>    9.2492    0.0000 </r>
       <r>    9.5770    0.0000 </r>
       <r>    9.8819    0.0000 </r>
      </set>
      <set comment="kpoint 7">
       <r>   -5.6925    1.0000 </r>
       <r>   -3.3450    1.0000 </r>
       <r>   -3.3450    1.0000 </r>
       <r>   -3.3450    1.0000 </r>
       <r>   -0.7659    1.0000 </r>
       <r>   -0.7659    1.0000 </r>
       <r>   -0.7659    1.0000 </r>
       <r>    2.0101    1.0000 </r>
       <r>    2.0101    1.0000 </r>
       <r>    2.0101    1.0000 </r>
       <r>    2.6302    1.0000 </r>
       <r>    3.2347    1.0000 </r>
       <r>    3.2347    1.0000 </r>
       <r>    3.2347    1.0000 </r>
       <r>    5.0443    1.0000 </r>
       <r>    5.0443    1.0000 </r>
       <r>    6.8704    0.0000 </r>
       <r>    6.8704    0.0000 </r>
       <r>    6.8704    0.0000 </r>
       <r>    7.7627    0.0000 </r>
       <r>    8.9557    0.0000 </r>
       <r>    8.9588    0.0000 </r>
       <r>    8.9878    0.0000 </r>
       <r>    8.9878    0.0000 </r>
      </set>
      <set comment="kpoint 8">
       <r>   -5.1986    1.0000 </r>
       <r>   -4.3990    1.0000 </r>
       <r>   -3.1957    1.0000 </r>
       <r>   -3.1957    1.0000 </r>
       <r>   -1.0574    1.0000 </r>
       <r>   -1.0574    1.0000 </r>
       <r>    0.3490    1.0000 </r>
       <r>    1.4402    1.0000 </r>
       <r>    1.8568    1.0000 </r>
       <r>    1.8568    1.0000 </r>
       <r>    3.0358    1.0000 </r>
       <r>    3.1984    1.0000 </r>
       <r>    3.1984    1.0000 </r>
       <r>    3.6581    1.0000 </r>
       <r>    4.3100    1.0000 </r>
       <r>    4.3541    1.0000 </r>
       <r>    7.3988    0.0000 </r>
       <r>    7.9583    0.0000 </r>
       <r>    7.9587    0.0000 </r>
       <r>    7.9587    0.0000 </r>
       <r>    8.9524    0.0000 </r>
       <r>    9.6817    0.0000 </r>
       <r>    9.8717    0.0000 </r>
       <r>    9.9510    0.0000 </r>
      </set>
      <set comment="kpoint 9">
       <r>   -4.7401    1.0000 </r>
       <r>   -4.0266    1.0000 </r>
       <r>   -4.0266    1.0000 </r>
       <r>   -3.5387    1.0000 </r>
       <r>   -1.0086    1.0000 </r>
       <r>   -0.4639    1.0000 </r>
       <r>   -0.4639    1.0000 </r>
       <r>    0.3808    1.0000 </r>
       <r>    2.2436    1.0000 </r>
       <r>    2.7623    1.0000 </r>
       <r>    2.7623    1.0000 </r>
       <r>    3.6031    1.0000 </r>
       <r>    3.9325    1.0000 </r>
       <r>    3.9505    1.0000 </r>
       <r>    3.9505    1.0000 </r>
       <r>    4.7166    1.0000 </r>
       <r>    7.6701    0.0000 </r>
       <r>    7.9614    0.0000 </r>
       <r>    8.3343    0.0000 </r>
       <r>    8.3343    0.0000 </r>
       <r>    8.8892    0.0000 </r>
       <r>    8.8892    0.0000 </r>
       <r>    9.2210    0.0000 </r>
       <r>    9.2997    0.0000 </r>
      </set>
      <set comment="kpoint 10">
       <r>   -4.3600    1.0000 </r>
       <r>   -3.8679    1.0000 </r>
       <r>   -3.8679    1.0000 </r>
       <r>   -3.8679    1.0000 </r>
       <r>   -1.1158    1.0000 </r>
       <r>   -1.1158    1.0000 </r>
       <r>   -1.1158    1.0000 </r>
       <r>   -0.5749    1.0000 </r>
       <r>    3.6647    1.0000 </r>
       <r>    3.6647    1.0000 </r>
       <r>    3.6647    1.0000 </r>
       <r>    4.1942    1.0000 </r>
       <r>    4.1942    1.0000 </r>
       <r>    4.1942    1.0000 </r>
       <r>    4.5045    1.0000 </r>
       <r>    4.5045    1.0000 </r>
       <r>    7.1590    0.0000 </r>
       <r>    7.7076    0.0000 </r>
       <r>    7.7076    0.0000 </r>
       <r>    7.7076    0.0000 </r>
       <r>    8.9221    0.0000 </r>
       <r>    8.9222    0.0000 </r>
       <r>    8.9248    0.0000 </r>
       <r>    9.0326    0.0000 </r>
      </set>
     </set>
    </set>
   </array>
  </eigenvalues>
  <separator name="orbital magnetization" >
   <v name="MAGDIPOLOUT">      0.00000000      0.00000000      0.00000000</v>
  </separator>
  <dos>
   <i name="efermi">      5.63436244 </i>
   <total>
    <array>
     <dimension dim="1">gridpoints</dimension>
     <dimension dim="2">spin</dimension>
     <field>energy</field>
     <field>total</field>
     <field>integrated</field>
     <set>
      <set comment="spin 1">
       <r>    -8.2003     0.0000     0.0000 </r>
       <r>    -8.1328     0.0000     0.0000 </r>
       <r>    -8.0653     0.0000     0.0000 </r>
       <r>    -7.9979     0.0000     0.0000 </r>
       <r>    -7.9304     0.0000     0.0000 </r>
       <r>    -7.8629     0.0000     0.0000 </r>
       <r>    -7.7954     0.0000     0.0000 </r>
       <r>    -7.7280     0.0000     0.0000 </r>
       <r>    -7.6605     0.0000     0.0000 </r>
       <r>    -7.5930     0.0000     0.0000 </r>
       <r>    -7.5255     0.0000     0.0000 </r>
       <r>    -7.4581     0.0000     0.0000 </r>
       <r>    -7.3906     0.0000     0.0000 </r>
       <r>    -7.3231     0.0000     0.0000 </r>
       <r>    -7.2556     0.0000     0.0000 </r>
       <r>    -7.1882     0.0000     0.0000 </r>
       <r>    -7.1207     0.0000     0.0000 </r>
       <r>    -7.0532     0.0000     0.0000 </r>
       <r>    -6.9857     0.0000     0.0000 </r>
       <r>    -6.9183     0.0000     0.0000 </r>
       <r>    -6.8508     0.0000     0.0000 </r>
       <r>    -6.7833     0.0000     0.0000 </r>
       <r>    -6.7158     0.0000     0.0000 </r>
       <r>    -6.6483     0.0000     0.0000 </r>
       <r>    -6.5809     0.0000     0.0000 </r>
       <r>    -6.5134     0.0000     0.0000 </r>
       <r>    -6.4459     0.0000     0.0000 </r>
       <r>    -6.3784     0.0000     0.0000 </r>
       <r>    -6.3110     0.0000     0.0000 </r>
       <r>    -6.2435     0.0000     0.0000 </r>
       <r>    -6.1760     0.0075     0.0001 </r>
       <r>    -6.1085     0.1076     0.0033 </r>
       <r>    -6.0411     0.3240     0.0172 </r>
       <r>    -5.9736     0.5833     0.0483 </r>
       <r>    -5.9061     0.7293     0.0933 </r>
       <r>    -5.8386     0.7628     0.1441 </r>
       <r>    -5.7712     0.7970     0.1965 </r>
       <r>    -5.7037     0.8746     0.2526 </r>
       <r>    -5.6362     0.9823     0.3152 </r>
       <r>    -5.5687     1.0960     0.3853 </r>
       <r>    -5.5013     1.3309     0.4642 </r>
       <r>    -5.4338     1.8534     0.5724 </r>
       <r>    -5.3663     2.2465     0.7114 </r>
       <r>    -5.2988     2.0353     0.8591 </r>
       <r>    -5.2314     1.7477     0.9865 </r>
       <r>    -5.1639     1.6220     1.0981 </r>
       <r>    -5.0964     1.6025     1.2070 </r>
       <r>    -5.0289     1.5706     1.3141 </r>
       <r>    -4.9615     1.5262     1.4187 </r>
       <r>    -4.8940     1.4693     1.5198 </r>
       <r>    -4.8265     1.8103     1.6447 </r>
       <r>    -4.7590     1.3940     1.7525 </r>
       <r>    -4.6916     0.7844     1.8183 </r>
       <r>    -4.6241     1.1908     1.8814 </r>
       <r>    -4.5566     1.7916     1.9816 </r>
       <r>    -4.4891     2.1627     2.1197 </r>
       <r>    -4.4216     2.2279     2.2683 </r>
       <r>    -4.3542     2.0650     2.4352 </r>
       <r>    -4.2867     2.2471     2.5809 </r>
       <r>    -4.2192     2.4030     2.7379 </r>
       <r>    -4.1517     2.5326     2.9046 </r>
       <r>    -4.0843     4.7731     3.1358 </r>
       <r>    -4.0168     4.3552     3.4455 </r>
       <r>    -3.9493     3.7666     3.7195 </r>
       <r>    -3.8818     3.1860     3.9540 </r>
       <r>    -3.8144     2.2261     4.1626 </r>
       <r>    -3.7469     2.3392     4.3165 </r>
       <r>    -3.6794     2.4703     4.4787 </r>
       <r>    -3.6119     2.6193     4.6503 </r>
       <r>    -3.5445     2.7862     4.8326 </r>
       <r>    -3.4770     5.1037     5.1261 </r>
       <r>    -3.4095     3.8152     5.4077 </r>
       <r>    -3.3420     3.7758     5.6613 </r>
       <r>    -3.2746     3.8502     5.9196 </r>
       <r>    -3.2071     3.7589     6.1772 </r>
       <r>    -3.1396     3.4166     6.4206 </r>
       <r>    -3.0721     2.1207     6.5979 </r>
       <r>    -3.0047     2.0348     6.7381 </r>
       <r>    -2.9372     1.9514     6.8726 </r>
       <r>    -2.8697     1.8705     7.0015 </r>
       <r>    -2.8022     1.7920     7.1250 </r>
       <r>    -2.7348     1.7161     7.2434 </r>
       <r>    -2.6673     1.5437     7.3530 </r>
       <r>    -2.5998     1.4271     7.4532 </r>
       <r>    -2.5323     1.3213     7.5459 </r>
       <r>    -2.4648     1.2262     7.6317 </r>
       <r>    -2.3974     1.1419     7.7116 </r>
       <r>    -2.3299     1.0743     7.7862 </r>
       <r>    -2.2624     0.9908     7.8561 </r>
       <r>    -2.1949     0.8746     7.9192 </r>
       <r>    -2.1275     0.7235     7.9734 </r>
       <r>    -2.0600     0.4400     8.0112 </r>
       <r>    -1.9925     0.4764     8.0410 </r>
       <r>    -1.9250     0.6710     8.0799 </r>
       <r>    -1.8576     0.8295     8.1307 </r>
       <r>    -1.7901     0.9517     8.1910 </r>
       <r>    -1.7226     1.0557     8.2586 </r>
       <r>    -1.6551     1.1730     8.3338 </r>
       <r>    -1.5877     1.2995     8.4171 </r>
       <r>    -1.5202     1.4352     8.5093 </r>
       <r>    -1.4527     1.5802     8.6110 </r>
       <r>    -1.3852     1.7344     8.7228 </r>
       <r>    -1.3178     2.0879     8.8497 </r>
       <r>    -1.2503     2.2750     8.9967 </r>
       <r>    -1.1828     2.5005     9.1576 </r>
       <r>    -1.1153     3.9738     9.3835 </r>
       <r>    -1.0479     8.5125     9.7861 </r>
       <r>    -0.9804     4.9678    10.2757 </r>
       <r>    -0.9129     5.4978    10.6285 </r>
       <r>    -0.8454     4.4086    10.9518 </r>
       <r>    -0.7780     3.8471    11.2303 </r>
       <r>    -0.7105     3.3484    11.4722 </r>
       <r>    -0.6430     2.7726    11.6843 </r>
       <r>    -0.5755     3.0369    11.8770 </r>
       <r>    -0.5080     2.3641    12.0786 </r>
       <r>    -0.4406     2.0145    12.2291 </r>
       <r>    -0.3731     1.9975    12.3645 </r>
       <r>    -0.3056     1.9810    12.4987 </r>
       <r>    -0.2381     1.9648    12.6318 </r>
       <r>    -0.1707     1.9491    12.7639 </r>
       <r>    -0.1032     1.9337    12.8949 </r>
       <r>    -0.0357     1.9187    13.0248 </r>
       <r>     0.0318     1.9041    13.1538 </r>
       <r>     0.0992     1.8898    13.2818 </r>
       <r>     0.1667     1.5490    13.3947 </r>
       <r>     0.2342     1.5329    13.4987 </r>
       <r>     0.3017     1.5140    13.6015 </r>
       <r>     0.3691     1.4870    13.7029 </r>
       <r>     0.4366     1.4711    13.8029 </r>
       <r>     0.5041     1.4446    13.9012 </r>
       <r>     0.5716     1.4165    13.9978 </r>
       <r>     0.6390     1.3867    14.0924 </r>
       <r>     0.7065     1.3554    14.1849 </r>
       <r>     0.7740     1.3225    14.2752 </r>
       <r>     0.8415     1.2881    14.3633 </r>
       <r>     0.9089     1.3163    14.4527 </r>
       <r>     0.9764     1.2530    14.5393 </r>
       <r>     1.0439     1.2020    14.6220 </r>
       <r>     1.1114     1.1633    14.7018 </r>
       <r>     1.1788     1.0324    14.7778 </r>
       <r>     1.2463     1.2010    14.8519 </r>
       <r>     1.3138     1.4789    14.9420 </r>
       <r>     1.3813     3.4808    15.0577 </r>
       <r>     1.4488     1.9450    15.2340 </r>
       <r>     1.5162     2.0247    15.3674 </r>
       <r>     1.5837     2.2086    15.5096 </r>
       <r>     1.6512     2.4836    15.6677 </r>
       <r>     1.7187     2.7220    15.8430 </r>
       <r>     1.7861     4.0808    16.1046 </r>
       <r>     1.8536     4.5840    16.3949 </r>
       <r>     1.9211     4.7539    16.7123 </r>
       <r>     1.9886     5.3713    17.0513 </r>
       <r>     2.0560     5.9359    17.4410 </r>
       <r>     2.1235     5.9461    17.8424 </r>
       <r>     2.1910     5.8624    18.2413 </r>
       <r>     2.2585     4.8932    18.6235 </r>
       <r>     2.3259     4.4978    18.9396 </r>
       <r>     2.3934     4.2194    19.2331 </r>
       <r>     2.4609     4.5671    19.5762 </r>
       <r>     2.5284     3.5886    19.8190 </r>
       <r>     2.5958     3.7161    20.0648 </r>
       <r>     2.6633     4.0096    20.3235 </r>
       <r>     2.7308     5.2552    20.6374 </r>
       <r>     2.7983     5.4427    21.0005 </r>
       <r>     2.8657     7.3816    21.4308 </r>
       <r>     2.9332     7.2736    21.9682 </r>
       <r>     3.0007     7.6951    22.4544 </r>
       <r>     3.0682     7.6952    22.9794 </r>
       <r>     3.1356     6.5768    23.4623 </r>
       <r>     3.2031     5.1328    23.8614 </r>
       <r>     3.2706     3.9758    24.1584 </r>
       <r>     3.3381     3.5313    24.4097 </r>
       <r>     3.4056     3.4432    24.6430 </r>
       <r>     3.4730     4.2310    24.8937 </r>
       <r>     3.5405     5.5415    25.2223 </r>
       <r>     3.6080     7.0367    25.6802 </r>
       <r>     3.6755     5.7253    26.1490 </r>
       <r>     3.7429     5.8446    26.5396 </r>
       <r>     3.8104     5.9249    26.9369 </r>
       <r>     3.8779     8.5497    27.4103 </r>
       <r>     3.9454     6.7731    27.9332 </r>
       <r>     4.0128     5.0713    28.3008 </r>
       <r>     4.0803     4.4830    28.6232 </r>
       <r>     4.1478     3.8882    28.9056 </r>
       <r>     4.2153     2.5115    29.1783 </r>
       <r>     4.2827     2.2901    29.3406 </r>
       <r>     4.3502     2.1707    29.4892 </r>
       <r>     4.4177     2.9013    29.6587 </r>
       <r>     4.4852     3.7140    29.8816 </r>
       <r>     4.5526     4.7350    30.2042 </r>
       <r>     4.6201     5.3002    30.5436 </r>
       <r>     4.6876     5.2819    30.9015 </r>
       <r>     4.7551     4.2845    31.2513 </r>
       <r>     4.8225     1.6453    31.4208 </r>
       <r>     4.8900     1.4140    31.5239 </r>
       <r>     4.9575     1.1982    31.6119 </r>
       <r>     5.0250     0.9978    31.6859 </r>
       <r>     5.0924     0.9619    31.7503 </r>
       <r>     5.1599     0.9506    31.8152 </r>
       <r>     5.2274     0.8646    31.8769 </r>
       <r>     5.2949     0.7039    31.9302 </r>
       <r>     5.3624     0.4685    31.9702 </r>
       <r>     5.4298     0.1585    31.9918 </r>
       <r>     5.4973     0.0531    31.9980 </r>
       <r>     5.5648     0.0089    31.9999 </r>
       <r>     5.6323     0.0000    32.0000 </r>
       <r>     5.6997     0.0000    32.0000 </r>
       <r>     5.7672     0.0000    32.0000 </r>
       <r>     5.8347     0.0000    32.0000 </r>
       <r>     5.9022     0.0000    32.0000 </r>
       <r>     5.9696     0.0000    32.0000 </r>
       <r>     6.0371     0.0000    32.0000 </r>
       <r>     6.1046     0.0000    32.0000 </r>
       <r>     6.1721     0.0000    32.0000 </r>
       <r>     6.2395     0.0379    32.0002 </r>
       <r>     6.3070     0.2534    32.0106 </r>
       <r>     6.3745     0.3659    32.0320 </r>
       <r>     6.4420     0.4573    32.0597 </r>
       <r>     6.5094     0.5765    32.0943 </r>
       <r>     6.5769     0.7120    32.1379 </r>
       <r>     6.6444     0.8226    32.1899 </r>
       <r>     6.7119     0.9015    32.2482 </r>
       <r>     6.7793     1.0054    32.3123 </r>
       <r>     6.8468     1.1576    32.3850 </r>
       <r>     6.9143     1.4415    32.4708 </r>
       <r>     6.9818     2.2137    32.5901 </r>
       <r>     7.0492     2.8302    32.7645 </r>
       <r>     7.1167     2.8249    32.9563 </r>
       <r>     7.1842     3.3673    33.1954 </r>
       <r>     7.2517     3.3942    33.4137 </r>
       <r>     7.3191     3.7857    33.6560 </r>
       <r>     7.3866     4.1683    33.9244 </r>
       <r>     7.4541     6.2174    34.3812 </r>
       <r>     7.5216     5.6809    34.7822 </r>
       <r>     7.5891     5.3380    35.1732 </r>
       <r>     7.6565     4.3150    35.4983 </r>
       <r>     7.7240     3.6034    35.7645 </r>
       <r>     7.7915     4.8401    36.0349 </r>
       <r>     7.8590     6.1362    36.4039 </r>
       <r>     7.9264     7.6326    36.8673 </r>
       <r>     7.9939     7.8681    37.5652 </r>
       <r>     8.0614     5.8178    38.0133 </r>
       <r>     8.1289     5.6943    38.4021 </r>
       <r>     8.1963     5.4949    38.7800 </r>
       <r>     8.2638     5.2305    39.1422 </r>
       <r>     8.3313     4.9038    39.4845 </r>
       <r>     8.3988     3.9815    39.7630 </r>
       <r>     8.4662     3.5824    40.0234 </r>
       <r>     8.5337     3.5055    40.2624 </r>
       <r>     8.6012     3.4559    40.4971 </r>
       <r>     8.6687     3.4364    40.7295 </r>
       <r>     8.7361     3.0884    40.9514 </r>
       <r>     8.8036     2.7076    41.1428 </r>
       <r>     8.8711     2.8651    41.3322 </r>
       <r>     8.9386    11.3947    42.2082 </r>
       <r>     9.0060    10.2421    42.9538 </r>
       <r>     9.0735     6.8170    43.4747 </r>
       <r>     9.1410     6.9769    43.9397 </r>
       <r>     9.2085     7.2113    44.4180 </r>
       <r>     9.2759     6.7837    44.8910 </r>
       <r>     9.3434     6.4275    45.3337 </r>
       <r>     9.4109     6.2307    45.7650 </r>
       <r>     9.4784     5.7122    46.1681 </r>
       <r>     9.5459     5.1325    46.5347 </r>
       <r>     9.6133     4.1001    46.8470 </r>
       <r>     9.6808     3.2819    47.0959 </r>
       <r>     9.7483     2.8691    47.3031 </r>
       <r>     9.8158     2.4710    47.4833 </r>
       <r>     9.8832     2.0029    47.6370 </r>
       <r>     9.9507     2.8939    47.8006 </r>
       <r>    10.0182     1.7953    47.9633 </r>
       <r>    10.0857     0.0000    48.0000 </r>
       <r>    10.1531     0.0000    48.0000 </r>
       <r>    10.2206     0.0000    48.0000 </r>
       <r>    10.2881     0.0000    48.0000 </r>
       <r>    10.3556     0.0000    48.0000 </r>
       <r>    10.4230     0.0000    48.0000 </r>
       <r>    10.4905     0.0000    48.0000 </r>
       <r>    10.5580     0.0000    48.0000 </r>
       <r>    10.6255     0.0000    48.0000 </r>
       <r>    10.6929     0.0000    48.0000 </r>
       <r>    10.7604     0.0000    48.0000 </r>
       <r>    10.8279     0.0000    48.0000 </r>
       <r>    10.8954     0.0000    48.0000 </r>
       <r>    10.9628     0.0000    48.0000 </r>
       <r>    11.0303     0.0000    48.0000 </r>
       <r>    11.0978     0.0000    48.0000 </r>
       <r>    11.1653     0.0000    48.0000 </r>
       <r>    11.2327     0.0000    48.0000 </r>
       <r>    11.3002     0.0000    48.0000 </r>
       <r>    11.3677     0.0000    48.0000 </r>
       <r>    11.4352     0.0000    48.0000 </r>
       <r>    11.5027     0.0000    48.0000 </r>
       <r>    11.5701     0.0000    48.0000 </r>
       <r>    11.6376     0.0000    48.0000 </r>
       <r>    11.7051     0.0000    48.0000 </r>
       <r>    11.7726     0.0000    48.0000 </r>
       <r>    11.8400     0.0000    48.0000 </r>
       <r>    11.9075     0.0000    48.0000 </r>
       <r>    11.9750     0.0000    48.0000 </r>
       <r>    12.0425     0.0000    48.0000 </r>
      </set>
     </set>
    </array>
   </total>
  </dos>
 </calculation>
 <structure name="finalpos" >
  <crystal>
   <varray name="basis" >
    <v>       5.46954500       0.00000000       0.00000000 </v>
    <v>       0.00000000       5.46954500       0.00000000 </v>
    <v>       0.00000000       0.00000000       5.46954500 </v>
   </varray>
   <i name="volume">    163.62648437 </i>
   <varray name="rec_basis" >
    <v>       0.18283056       0.00000000       0.00000000 </v>
    <v>       0.00000000       0.18283056       0.00000000 </v>
    <v>       0.00000000       0.00000000       0.18283056 </v>
   </varray>
  </crystal>
  <varray name="positions" >
   <v>       0.25000000       0.25000000       0.25000000 </v>
   <v>       0.00000000       0.50000000       0.50000000 </v>
   <v>       0.25000000       0.75000000       0.75000000 </v>
   <v>       0.00000000       0.00000000       0.00000000 </v>
   <v>       0.75000000       0.25000000       0.75000000 </v>
   <v>       0.50000000       0.50000000       0.00000000 </v>
   <v>       0.75000000       0.75000000       0.25000000 </v>
   <v>       0.50000000       0.00000000       0.50000000 </v>
  </varray>
 </structure>
</modeling>
